 
             +---------------------------------------------------+
             |                                                   |
             |                   WANNIER90                       |
             |                                                   |
             +---------------------------------------------------+
             |                                                   |
             |        Welcome to the Maximally-Localized         |
             |        Generalized Wannier Functions code         |
             |            http://www.wannier.org                 |
             |                                                   |
             |                                                   |
             |  Wannier90 Developer Group:                       |
             |    Giovanni Pizzi    (EPFL)                       |
             |    Valerio Vitale    (Cambridge)                  |
             |    David Vanderbilt  (Rutgers University)         |
             |    Nicola Marzari    (EPFL)                       |
             |    Ivo Souza         (Universidad del Pais Vasco) |
             |    Arash A. Mostofi  (Imperial College London)    |
             |    Jonathan R. Yates (University of Oxford)       |
             |                                                   |
             |  For the full list of Wannier90 3.x authors,      |
             |  please check the code documentation and the      |
             |  README on the GitHub page of the code            |
             |                                                   |
             |                                                   |
             |  Please cite                                      |
             |                                                   |
             |  [ref] "An updated version of Wannier90:          |
             |        A Tool for Obtaining Maximally Localised   |
             |        Wannier Functions", A. A. Mostofi,         |
             |        J. R. Yates, G. Pizzi, Y. S. Lee,          |
             |        I. Souza, D. Vanderbilt and N. Marzari,    |
             |        Comput. Phys. Commun. 185, 2309 (2014)     |
             |        http://dx.doi.org/10.1016/j.cpc.2014.05.003|
             |                                                   |
             |  in any publications arising from the use of      |
             |  this code. For the method please cite            |
             |                                                   |
             |  [ref] "Maximally Localized Generalised Wannier   |
             |         Functions for Composite Energy Bands"     |
             |         N. Marzari and D. Vanderbilt              |
             |         Phys. Rev. B 56 12847 (1997)              |
             |                                                   |
             |  [ref] "Maximally Localized Wannier Functions     |
             |         for Entangled Energy Bands"               |
             |         I. Souza, N. Marzari and D. Vanderbilt    |
             |         Phys. Rev. B 65 035109 (2001)             |
             |                                                   |
             |                                                   |
             | Copyright (c) 1996-2019                           |
             |        The Wannier90 Developer Group and          |
             |        individual contributors                    |
             |                                                   |
             |      Release: 3.0.0       27th February 2019      |
             |                                                   |
             | This program is free software; you can            |
             | redistribute it and/or modify it under the terms  |
             | of the GNU General Public License as published by |
             | the Free Software Foundation; either version 2 of |
             | the License, or (at your option) any later version|
             |                                                   |
             | This program is distributed in the hope that it   |
             | will be useful, but WITHOUT ANY WARRANTY; without |
             | even the implied warranty of MERCHANTABILITY or   |
             | FITNESS FOR A PARTICULAR PURPOSE. See the GNU     |
             | General Public License for more details.          |
             |                                                   |
             | You should have received a copy of the GNU General|
             | Public License along with this program; if not,   |
             | write to the Free Software Foundation, Inc.,      |
             | 675 Mass Ave, Cambridge, MA 02139, USA.           |
             |                                                   |
             +---------------------------------------------------+
             |    Execution started on 27Jul2021 at 18:17:15     |
             +---------------------------------------------------+
 
 ******************************************************************************
 * -> Using CODATA 2006 constant values                                       *
 *    (http://physics.nist.gov/cuu/Constants/index.html)                      *
 * -> Using Bohr value from CODATA                                            *
 ******************************************************************************
 

 Running in serial (with serial executable)
 
                                    ------
                                    SYSTEM
                                    ------
 
                              Lattice Vectors (Ang)
                    a_1    15.875316   0.000000   0.000000
                    a_2     0.000000  15.875316   0.000000
                    a_3     0.000000   0.000000  15.875316
 
                   Unit Cell Volume:    4000.98716  (Ang^3)
 
                        Reciprocal-Space Vectors (Ang^-1)
                    b_1     0.395783   0.000000   0.000000
                    b_2     0.000000   0.395783   0.000000
                    b_3     0.000000   0.000000   0.395783
  
 *----------------------------------------------------------------------------*
 |   Site       Fractional Coordinate          Cartesian Coordinate (Ang)     |
 +----------------------------------------------------------------------------+
 | C    1   0.52095   0.50000   0.50000   |    8.27021   7.93766   7.93766    |
 | C    2   0.47698   0.57616   0.50000   |    7.57221   9.14666   7.93766    |
 | C    3   0.38905   0.57616   0.50000   |    6.17621   9.14666   7.93766    |
 | C    4   0.34508   0.50000   0.50000   |    5.47821   7.93766   7.93766    |
 | C    5   0.38905   0.42384   0.50000   |    6.17621   6.72866   7.93766    |
 | C    6   0.47698   0.42384   0.50000   |    7.57221   6.72866   7.93766    |
 | H    1   0.58917   0.50000   0.50000   |    9.35321   7.93766   7.93766    |
 | H    2   0.51112   0.63524   0.50000   |    8.11421  10.08466   7.93766    |
 | H    3   0.35490   0.63524   0.50000   |    5.63421  10.08466   7.93766    |
 | H    4   0.27686   0.50000   0.50000   |    4.39521   7.93766   7.93766    |
 | H    5   0.35490   0.36476   0.50000   |    5.63421   5.79066   7.93766    |
 | H    6   0.51112   0.36476   0.50000   |    8.11421   5.79066   7.93766    |
 *----------------------------------------------------------------------------*
                                -----------
                                PROJECTIONS
                                -----------
  
 +----------------------------------------------------------------------------+
 |     Frac. Coord.   l mr  r        z-axis               x-axis          Z/a |
 +----------------------------------------------------------------------------+
 |  0.79  0.91  0.18  0  1  1  0.000  0.000  1.000  1.000  0.000  0.000   1.0 |
 |  0.10  0.77  0.55  0  1  1  0.000  0.000  1.000  1.000  0.000  0.000   1.0 |
 |  0.25  0.05  0.78  0  1  1  0.000  0.000  1.000  1.000  0.000  0.000   1.0 |
 |  0.03  0.84  0.18  0  1  1  0.000  0.000  1.000  1.000  0.000  0.000   1.0 |
 |  0.67  1.00  0.35  0  1  1  0.000  0.000  1.000  1.000  0.000  0.000   1.0 |
 |  0.10  0.05  0.25  0  1  1  0.000  0.000  1.000  1.000  0.000  0.000   1.0 |
 |  0.12  0.39  0.46  0  1  1  0.000  0.000  1.000  1.000  0.000  0.000   1.0 |
 |  0.58  0.03  0.38  0  1  1  0.000  0.000  1.000  1.000  0.000  0.000   1.0 |
 |  0.60  0.46  0.69  0  1  1  0.000  0.000  1.000  1.000  0.000  0.000   1.0 |
 |  0.22  0.66  0.19  0  1  1  0.000  0.000  1.000  1.000  0.000  0.000   1.0 |
 |  0.68  0.79  0.23  0  1  1  0.000  0.000  1.000  1.000  0.000  0.000   1.0 |
 |  0.45  0.81  0.06  0  1  1  0.000  0.000  1.000  1.000  0.000  0.000   1.0 |
 |  0.47  0.02  0.94  0  1  1  0.000  0.000  1.000  1.000  0.000  0.000   1.0 |
 |  0.87  0.11  0.70  0  1  1  0.000  0.000  1.000  1.000  0.000  0.000   1.0 |
 |  0.94  0.80  0.58  0  1  1  0.000  0.000  1.000  1.000  0.000  0.000   1.0 |
 +----------------------------------------------------------------------------+
  
                                ------------
                                K-POINT GRID
                                ------------
  
             Grid size =  1 x  1 x  1      Total points =    1
  
 *----------------------------------------------------------------------------*
 | k-point      Fractional Coordinate        Cartesian Coordinate (Ang^-1)    |
 +----------------------------------------------------------------------------+
 |     1    0.00000   0.00000   0.00000   |    0.00000   0.00000   0.00000    |
 *----------------------------------------------------------------------------*
  
  
 *---------------------------------- MAIN ------------------------------------*
 |  Number of Wannier Functions               :                15             |
 |  Number of Objective Wannier Functions     :                15             |
 |  Number of input Bloch states              :                15             |
 |  Output verbosity (1=low, 5=high)          :                 2             |
 |  Timing Level (1=low, 5=high)              :                 1             |
 |  Optimisation (0=memory, 3=speed)          :                 3             |
 |  Length Unit                               :               Ang             |
 |  Post-processing setup (write *.nnkp)      :                 F             |
 |  Using Gamma-only branch of algorithms     :                 T             |
 *----------------------------------------------------------------------------*
 *------------------------------- WANNIERISE ---------------------------------*
 |  Total number of iterations                :               100             |
 |  Number of CG steps before reset           :                 5             |
 |  Trial step length for line search         :             2.000             |
 |  Convergence tolerence                     :         0.100E-09             |
 |  Convergence window                        :                 5             |
 |  Iterations between writing output         :                 1             |
 |  Iterations between backing up to disk     :               100             |
 |  Write r^2_nm to file                      :                 F             |
 |  Write xyz WF centres to file              :                 F             |
 |  Write on-site energies <0n|H|0n> to file  :                 F             |
 |  Use guiding centre to control phases      :                 T             |
 |  Use phases for initial projections        :                 F             |
 |  Iterations before starting guiding centres:                 0             |
 |  Iterations between using guiding centres  :                 1             |
 *----------------------------------------------------------------------------*
 Time to read parameters        0.003 (sec)

 *---------------------------------- K-MESH ----------------------------------*
 +----------------------------------------------------------------------------+
 |                    Distance to Nearest-Neighbour Shells                    |
 |                    ------------------------------------                    |
 |          Shell             Distance (Ang^-1)          Multiplicity         |
 |          -----             -----------------          ------------         |
 |             1                   0.395783                      6            |
 |             2                   0.559722                     12            |
 |             3                   0.685517                      8            |
 |             4                   0.791567                      6            |
 |             5                   0.884998                     24            |
 |             6                   0.969467                     24            |
 |             7                   1.119444                     12            |
 |             8                   1.187350                     30            |
 |             9                   1.251577                     24            |
 |            10                   1.312665                     24            |
 |            11                   1.371034                      8            |
 |            12                   1.427017                     24            |
 |            13                   1.480886                     48            |
 |            14                   1.583133                      6            |
 |            15                   1.631856                     48            |
 |            16                   1.679166                     36            |
 |            17                   1.725179                     24            |
 |            18                   1.769997                     24            |
 |            19                   1.813707                     48            |
 |            20                   1.856388                     24            |
 |            21                   1.938934                     24            |
 |            22                   1.978917                     30            |
 |            23                   2.018107                     72            |
 |            24                   2.056550                     32            |
 |            25                   2.131358                     72            |
 |            26                   2.167794                     48            |
 |            27                   2.238889                     12            |
 |            28                   2.273602                     48            |
 |            29                   2.307793                     48            |
 |            30                   2.341486                     48            |
 |            31                   2.374700                     24            |
 |            32                   2.439772                     48            |
 |            33                   2.534250                     48            |
 |            34                   2.564969                     48            |
 |            35                   2.595325                     24            |
 |            36                   2.654995                     48            |
 +----------------------------------------------------------------------------+
 | The b-vectors are chosen automatically                                     |
 | Shell:  1 w_b    3.1919424      (Ang^2)                                    |
 | The following shells are used:   1                                         |
 +----------------------------------------------------------------------------+
 |                        Shell   # Nearest-Neighbours                        |
 |                        -----   --------------------                        |
 |                          1               6                                 |
 +----------------------------------------------------------------------------+
 | Completeness relation is fully satisfied [Eq. (B1), PRB 56, 12847 (1997)]  |
 +----------------------------------------------------------------------------+
 |                  b_k Vectors (Ang^-1) and Weights (Ang^2)                  |
 |                  ----------------------------------------                  |
 |            No.         b_k(x)      b_k(y)      b_k(z)        w_b           |
 |            ---        --------------------------------     --------        |
 |             1         0.395783    0.000000    0.000000     3.191942        |
 |             2         0.000000    0.395783    0.000000     3.191942        |
 |             3         0.000000    0.000000    0.395783     3.191942        |
 |             4         0.000000    0.000000   -0.395783     3.191942        |
 |             5         0.000000   -0.395783    0.000000     3.191942        |
 |             6        -0.395783    0.000000    0.000000     3.191942        |
 +----------------------------------------------------------------------------+
 |                           b_k Directions (Ang^-1)                          |
 |                           -----------------------                          |
 |            No.           x           y           z                         |
 |            ---        --------------------------------                     |
 |             1         0.395783    0.000000    0.000000                     |
 |             2         0.000000    0.395783    0.000000                     |
 |             3         0.000000    0.000000    0.395783                     |
 +----------------------------------------------------------------------------+
  
 +----------------------------------------------------------------------------+
 |        Gamma-point: number of the b-vectors is reduced by half             |
 +----------------------------------------------------------------------------+
 |                  b_k Vectors (Ang^-1) and Weights (Ang^2)                  |
 |                  ----------------------------------------                  |
 |            No.         b_k(x)      b_k(y)      b_k(z)        w_b           |
 |            ---        --------------------------------     --------        |
 |             1         0.395783    0.000000    0.000000     6.383885        |
 |             2         0.000000    0.395783    0.000000     6.383885        |
 |             3         0.000000    0.000000    0.395783     6.383885        |
 +----------------------------------------------------------------------------+
  
 Time to get kmesh              0.005 (sec)
> *============================================================================*
 |                              MEMORY ESTIMATE                               |
 |         Maximum RAM allocated during each phase of the calculation         |
 *============================================================================*
 |                            Wannierise:            0.08 Mb                  |
 |                                                                            |
 |   N.B. by setting optimisation=0 memory usage will be reduced to:          |
 |                            Wannierise:            0.08 Mb                  |
 |   However, this will result in more i/o and slow down the calculation      |
 |                          plot_wannier:            0.08 Mb                  |
 *----------------------------------------------------------------------------*
  
 Starting a new Wannier90 calculation ...

 Exiting.......
 Error: Problem opening input file benzene.mmn
