 
             +---------------------------------------------------+
             |                                                   |
             |                   WANNIER90                       |
             |                                                   |
             +---------------------------------------------------+
             |                                                   |
             |        Welcome to the Maximally-Localized         |
             |        Generalized Wannier Functions code         |
             |            http://www.wannier.org                 |
             |                                                   |
             |                                                   |
             |  Wannier90 Developer Group:                       |
             |    Giovanni Pizzi    (EPFL)                       |
             |    Valerio Vitale    (Cambridge)                  |
             |    David Vanderbilt  (Rutgers University)         |
             |    Nicola Marzari    (EPFL)                       |
             |    Ivo Souza         (Universidad del Pais Vasco) |
             |    Arash A. Mostofi  (Imperial College London)    |
             |    Jonathan R. Yates (University of Oxford)       |
             |                                                   |
             |  For the full list of Wannier90 3.x authors,      |
             |  please check the code documentation and the      |
             |  README on the GitHub page of the code            |
             |                                                   |
             |                                                   |
             |  Please cite                                      |
             |                                                   |
             |  [ref] "An updated version of Wannier90:          |
             |        A Tool for Obtaining Maximally Localised   |
             |        Wannier Functions", A. A. Mostofi,         |
             |        J. R. Yates, G. Pizzi, Y. S. Lee,          |
             |        I. Souza, D. Vanderbilt and N. Marzari,    |
             |        Comput. Phys. Commun. 185, 2309 (2014)     |
             |        http://dx.doi.org/10.1016/j.cpc.2014.05.003|
             |                                                   |
             |  in any publications arising from the use of      |
             |  this code. For the method please cite            |
             |                                                   |
             |  [ref] "Maximally Localized Generalised Wannier   |
             |         Functions for Composite Energy Bands"     |
             |         N. Marzari and D. Vanderbilt              |
             |         Phys. Rev. B 56 12847 (1997)              |
             |                                                   |
             |  [ref] "Maximally Localized Wannier Functions     |
             |         for Entangled Energy Bands"               |
             |         I. Souza, N. Marzari and D. Vanderbilt    |
             |         Phys. Rev. B 65 035109 (2001)             |
             |                                                   |
             |                                                   |
             | Copyright (c) 1996-2019                           |
             |        The Wannier90 Developer Group and          |
             |        individual contributors                    |
             |                                                   |
             |      Release: 3.0.0       27th February 2019      |
             |                                                   |
             | This program is free software; you can            |
             | redistribute it and/or modify it under the terms  |
             | of the GNU General Public License as published by |
             | the Free Software Foundation; either version 2 of |
             | the License, or (at your option) any later version|
             |                                                   |
             | This program is distributed in the hope that it   |
             | will be useful, but WITHOUT ANY WARRANTY; without |
             | even the implied warranty of MERCHANTABILITY or   |
             | FITNESS FOR A PARTICULAR PURPOSE. See the GNU     |
             | General Public License for more details.          |
             |                                                   |
             | You should have received a copy of the GNU General|
             | Public License along with this program; if not,   |
             | write to the Free Software Foundation, Inc.,      |
             | 675 Mass Ave, Cambridge, MA 02139, USA.           |
             |                                                   |
             +---------------------------------------------------+
             |    Execution started on 28Jul2021 at 02:06:40     |
             +---------------------------------------------------+
 
 ******************************************************************************
 * -> Using CODATA 2006 constant values                                       *
 *    (http://physics.nist.gov/cuu/Constants/index.html)                      *
 * -> Using Bohr value from CODATA                                            *
 ******************************************************************************
 

 Running in serial (with serial executable)
 
                                    ------
                                    SYSTEM
                                    ------
 
                              Lattice Vectors (Ang)
                    a_1    20.364000   0.000000   0.000000
                    a_2     0.000000  20.364000   0.000000
                    a_3     0.000000   0.000000  20.364000
 
                   Unit Cell Volume:    8444.79799  (Ang^3)
 
                        Reciprocal-Space Vectors (Ang^-1)
                    b_1     0.308544   0.000000   0.000000
                    b_2     0.000000   0.308544   0.000000
                    b_3     0.000000   0.000000   0.308544
  
 *----------------------------------------------------------------------------*
 |   Site       Fractional Coordinate          Cartesian Coordinate (Ang)     |
 +----------------------------------------------------------------------------+
 | C    1   0.56325   0.49990   0.47240   |   11.47000  10.18000   9.62000    |
 | C    2   0.55588   0.49990   0.54066   |   11.32000  10.18000  11.01000    |
 | C    3   0.49254   0.49990   0.56865   |   10.03000  10.18000  11.58000    |
 | C    4   0.43705   0.49990   0.52740   |    8.90000  10.18000  10.74000    |
 | C    5   0.44392   0.49990   0.45963   |    9.04000  10.18000   9.36000    |
 | C    6   0.50727   0.49990   0.43115   |   10.33000  10.18000   8.78000    |
 | C    7   0.48173   0.49990   0.64133   |    9.81000  10.18000  13.06000    |
 | C    8   0.51856   0.49990   0.35897   |   10.56000  10.18000   7.31000    |
 | C    9   0.46896   0.49990   0.25437   |    9.55000  10.18000   5.18000    |
 | C   10   0.53084   0.49990   0.74592   |   10.81000  10.18000  15.19000    |
 | O    1   0.57258   0.50039   0.33245   |   11.66000  10.19000   6.77000    |
 | O    2   0.46111   0.49990   0.32459   |    9.39000  10.18000   6.61000    |
 | O    3   0.42722   0.50039   0.66735   |    8.70000  10.19000  13.59000    |
 | O    4   0.53919   0.49990   0.67521   |   10.98000  10.18000  13.75000    |
 | H    1   0.61186   0.49990   0.44932   |   12.46000  10.18000   9.15000    |
 | H    2   0.59910   0.49990   0.57258   |   12.20000  10.18000  11.66000    |
 | H    3   0.38843   0.50039   0.55048   |    7.91000  10.19000  11.21000    |
 | H    4   0.40120   0.50039   0.42772   |    8.17000  10.19000   8.71000    |
 | H    5   0.49597   0.54410   0.23817   |   10.10000  11.08000   4.85000    |
 | H    6   0.49646   0.45620   0.23817   |   10.11000   9.29000   4.85000    |
 | H    7   0.41937   0.49941   0.23424   |    8.54000  10.17000   4.77000    |
 | H    8   0.58093   0.49941   0.76606   |   11.83000  10.17000  15.60000    |
 | H    9   0.50383   0.54410   0.76164   |   10.26000  11.08000  15.51000    |
 | H   10   0.50334   0.45620   0.76164   |   10.25000   9.29000  15.51000    |
 *----------------------------------------------------------------------------*
                                -----------
                                PROJECTIONS
                                -----------
  
 +----------------------------------------------------------------------------+
 |     Frac. Coord.   l mr  r        z-axis               x-axis          Z/a |
 +----------------------------------------------------------------------------+
 |  0.50  0.99  0.20  0  1  1  0.000  0.000  1.000  1.000  0.000  0.000   1.0 |
 |  0.05  0.77  0.74  0  1  1  0.000  0.000  1.000  1.000  0.000  0.000   1.0 |
 |  0.74  0.91  0.90  0  1  1  0.000  0.000  1.000  1.000  0.000  0.000   1.0 |
 |  0.36  0.53  0.07  0  1  1  0.000  0.000  1.000  1.000  0.000  0.000   1.0 |
 |  0.52  0.42  0.93  0  1  1  0.000  0.000  1.000  1.000  0.000  0.000   1.0 |
 |  0.73  0.47  0.80  0  1  1  0.000  0.000  1.000  1.000  0.000  0.000   1.0 |
 |  0.18  0.94  0.34  0  1  1  0.000  0.000  1.000  1.000  0.000  0.000   1.0 |
 |  0.66  0.21  0.13  0  1  1  0.000  0.000  1.000  1.000  0.000  0.000   1.0 |
 |  0.16  0.38  0.97  0  1  1  0.000  0.000  1.000  1.000  0.000  0.000   1.0 |
 |  0.64  0.68  1.00  0  1  1  0.000  0.000  1.000  1.000  0.000  0.000   1.0 |
 |  0.35  0.14  0.85  0  1  1  0.000  0.000  1.000  1.000  0.000  0.000   1.0 |
 |  0.93  0.49  0.59  0  1  1  0.000  0.000  1.000  1.000  0.000  0.000   1.0 |
 |  0.90  0.43  0.22  0  1  1  0.000  0.000  1.000  1.000  0.000  0.000   1.0 |
 |  0.54  0.12  0.98  0  1  1  0.000  0.000  1.000  1.000  0.000  0.000   1.0 |
 |  0.84  0.65  0.13  0  1  1  0.000  0.000  1.000  1.000  0.000  0.000   1.0 |
 |  0.12  0.31  0.04  0  1  1  0.000  0.000  1.000  1.000  0.000  0.000   1.0 |
 |  0.25  0.79  0.52  0  1  1  0.000  0.000  1.000  1.000  0.000  0.000   1.0 |
 |  0.30  0.55  0.32  0  1  1  0.000  0.000  1.000  1.000  0.000  0.000   1.0 |
 |  0.20  0.42  0.63  0  1  1  0.000  0.000  1.000  1.000  0.000  0.000   1.0 |
 |  0.87  0.07  0.19  0  1  1  0.000  0.000  1.000  1.000  0.000  0.000   1.0 |
 |  0.15  0.35  0.82  0  1  1  0.000  0.000  1.000  1.000  0.000  0.000   1.0 |
 |  0.39  0.11  0.24  0  1  1  0.000  0.000  1.000  1.000  0.000  0.000   1.0 |
 |  0.52  0.04  0.83  0  1  1  0.000  0.000  1.000  1.000  0.000  0.000   1.0 |
 |  0.19  0.05  0.49  0  1  1  0.000  0.000  1.000  1.000  0.000  0.000   1.0 |
 |  0.24  0.94  0.33  0  1  1  0.000  0.000  1.000  1.000  0.000  0.000   1.0 |
 |  0.53  0.05  0.43  0  1  1  0.000  0.000  1.000  1.000  0.000  0.000   1.0 |
 |  0.24  0.14  0.38  0  1  1  0.000  0.000  1.000  1.000  0.000  0.000   1.0 |
 |  0.00  0.05  0.18  0  1  1  0.000  0.000  1.000  1.000  0.000  0.000   1.0 |
 |  0.38  0.47  0.38  0  1  1  0.000  0.000  1.000  1.000  0.000  0.000   1.0 |
 |  0.49  0.67  0.06  0  1  1  0.000  0.000  1.000  1.000  0.000  0.000   1.0 |
 |  0.65  0.44  0.69  0  1  1  0.000  0.000  1.000  1.000  0.000  0.000   1.0 |
 |  0.92  0.06  0.15  0  1  1  0.000  0.000  1.000  1.000  0.000  0.000   1.0 |
 |  0.85  0.16  0.58  0  1  1  0.000  0.000  1.000  1.000  0.000  0.000   1.0 |
 |  0.31  0.47  0.36  0  1  1  0.000  0.000  1.000  1.000  0.000  0.000   1.0 |
 |  0.34  0.56  0.56  0  1  1  0.000  0.000  1.000  1.000  0.000  0.000   1.0 |
 |  0.04  0.43  0.07  0  1  1  0.000  0.000  1.000  1.000  0.000  0.000   1.0 |
 |  0.94  0.37  0.75  0  1  1  0.000  0.000  1.000  1.000  0.000  0.000   1.0 |
 +----------------------------------------------------------------------------+
  
                                ------------
                                K-POINT GRID
                                ------------
  
             Grid size =  1 x  1 x  1      Total points =    1
  
 *----------------------------------------------------------------------------*
 | k-point      Fractional Coordinate        Cartesian Coordinate (Ang^-1)    |
 +----------------------------------------------------------------------------+
 |     1    0.00000   0.00000   0.00000   |    0.00000   0.00000   0.00000    |
 *----------------------------------------------------------------------------*
  
  
 *---------------------------------- MAIN ------------------------------------*
 |  Number of Wannier Functions               :                37             |
 |  Number of Objective Wannier Functions     :                37             |
 |  Number of input Bloch states              :                37             |
 |  Output verbosity (1=low, 5=high)          :                 2             |
 |  Timing Level (1=low, 5=high)              :                 1             |
 |  Optimisation (0=memory, 3=speed)          :                 3             |
 |  Length Unit                               :               Ang             |
 |  Post-processing setup (write *.nnkp)      :                 F             |
 |  Using Gamma-only branch of algorithms     :                 T             |
 |  Wavefunction (UNK) file-type              :       unformatted             |
 |  Wavefunction spin channel                 :                up             |
 *----------------------------------------------------------------------------*
 *------------------------------- WANNIERISE ---------------------------------*
 |  Total number of iterations                :               100             |
 |  Number of CG steps before reset           :                 5             |
 |  Trial step length for line search         :             2.000             |
 |  Convergence tolerence                     :         0.100E-09             |
 |  Convergence window                        :                -1             |
 |  Iterations between writing output         :                 1             |
 |  Iterations between backing up to disk     :               100             |
 |  Write r^2_nm to file                      :                 F             |
 |  Write xyz WF centres to file              :                 F             |
 |  Write on-site energies <0n|H|0n> to file  :                 F             |
 |  Use guiding centre to control phases      :                 T             |
 |  Use phases for initial projections        :                 F             |
 |  Iterations before starting guiding centres:                 0             |
 |  Iterations between using guiding centres  :                 1             |
 *----------------------------------------------------------------------------*
 *-------------------------------- PLOTTING ----------------------------------*
 |  Plotting Wannier functions                :                 T             |
 |   Size of supercell for plotting           :     2x    2x    2             |
 |  Translating WFs to home cell              :                 T             |
 |   Plotting mode (molecule or crystal)      :          molecule             |
 |   Plotting format                          :              cube             |
 |   Plot radius                              :             3.500             |
 |   Plot scale                               :             1.000             |
 *----------------------------------------------------------------------------*
 Time to read parameters        0.003 (sec)

 *---------------------------------- K-MESH ----------------------------------*
 +----------------------------------------------------------------------------+
 |                    Distance to Nearest-Neighbour Shells                    |
 |                    ------------------------------------                    |
 |          Shell             Distance (Ang^-1)          Multiplicity         |
 |          -----             -----------------          ------------         |
 |             1                   0.308544                      6            |
 |             2                   0.436347                     12            |
 |             3                   0.534413                      8            |
 |             4                   0.617088                      6            |
 |             5                   0.689925                     24            |
 |             6                   0.755775                     24            |
 |             7                   0.872694                     12            |
 |             8                   0.925631                     30            |
 |             9                   0.975701                     24            |
 |            10                   1.023324                     24            |
 |            11                   1.068827                      8            |
 |            12                   1.112470                     24            |
 |            13                   1.154465                     48            |
 |            14                   1.234175                      6            |
 |            15                   1.272159                     48            |
 |            16                   1.309040                     36            |
 |            17                   1.344911                     24            |
 |            18                   1.379850                     24            |
 |            19                   1.413925                     48            |
 |            20                   1.447199                     24            |
 |            21                   1.511550                     24            |
 |            22                   1.542719                     30            |
 |            23                   1.573271                     72            |
 |            24                   1.603240                     32            |
 |            25                   1.661559                     72            |
 |            26                   1.689964                     48            |
 |            27                   1.745387                     12            |
 |            28                   1.772449                     48            |
 |            29                   1.799104                     48            |
 |            30                   1.825370                     48            |
 |            31                   1.851263                     24            |
 |            32                   1.901992                     48            |
 |            33                   1.975644                     48            |
 |            34                   1.999592                     48            |
 |            35                   2.023257                     24            |
 |            36                   2.069775                     48            |
 +----------------------------------------------------------------------------+
 | The b-vectors are chosen automatically                                     |
 | Shell:  1 w_b    5.2521418      (Ang^2)                                    |
 | The following shells are used:   1                                         |
 +----------------------------------------------------------------------------+
 |                        Shell   # Nearest-Neighbours                        |
 |                        -----   --------------------                        |
 |                          1               6                                 |
 +----------------------------------------------------------------------------+
 | Completeness relation is fully satisfied [Eq. (B1), PRB 56, 12847 (1997)]  |
 +----------------------------------------------------------------------------+
 |                  b_k Vectors (Ang^-1) and Weights (Ang^2)                  |
 |                  ----------------------------------------                  |
 |            No.         b_k(x)      b_k(y)      b_k(z)        w_b           |
 |            ---        --------------------------------     --------        |
 |             1         0.308544    0.000000    0.000000     5.252142        |
 |             2         0.000000    0.308544    0.000000     5.252142        |
 |             3         0.000000    0.000000    0.308544     5.252142        |
 |             4         0.000000    0.000000   -0.308544     5.252142        |
 |             5         0.000000   -0.308544    0.000000     5.252142        |
 |             6        -0.308544    0.000000    0.000000     5.252142        |
 +----------------------------------------------------------------------------+
 |                           b_k Directions (Ang^-1)                          |
 |                           -----------------------                          |
 |            No.           x           y           z                         |
 |            ---        --------------------------------                     |
 |             1         0.308544    0.000000    0.000000                     |
 |             2         0.000000    0.308544    0.000000                     |
 |             3         0.000000    0.000000    0.308544                     |
 +----------------------------------------------------------------------------+
  
 +----------------------------------------------------------------------------+
 |        Gamma-point: number of the b-vectors is reduced by half             |
 +----------------------------------------------------------------------------+
 |                  b_k Vectors (Ang^-1) and Weights (Ang^2)                  |
 |                  ----------------------------------------                  |
 |            No.         b_k(x)      b_k(y)      b_k(z)        w_b           |
 |            ---        --------------------------------     --------        |
 |             1         0.308544    0.000000    0.000000    10.504284        |
 |             2         0.000000    0.308544    0.000000    10.504284        |
 |             3         0.000000    0.000000    0.308544    10.504284        |
 +----------------------------------------------------------------------------+
  
 Time to get kmesh              0.005 (sec)
 *============================================================================*
 |                              MEMORY ESTIMATE                               |
 |         Maximum RAM allocated during each phase of the calculation         |
 *============================================================================*
 |                            Wannierise:            0.43 Mb                  |
 |                                                                            |
 |   N.B. by setting optimisation=0 memory usage will be reduced to:          |
 |                            Wannierise:            0.43 Mb                  |
 |   However, this will result in more i/o and slow down the calculation      |
 |                          plot_wannier:            0.43 Mb                  |
 *----------------------------------------------------------------------------*
  
 Starting a new Wannier90 calculation ...


 Reading overlaps from tanryo.mmn    :  Created on 28Jul2021 at  2: 5:39

 Reading projections from tanryo.amn :  Created on 28Jul2021 at  2: 5:35

 Time to read overlaps          0.006 (sec)

 Writing checkpoint file tanryo.chk... done

 
 *------------------------------- WANNIERISE ---------------------------------*
 +--------------------------------------------------------------------+<-- CONV
 | Iter  Delta Spread     RMS Gradient      Spread (Ang^2)      Time  |<-- CONV
 +--------------------------------------------------------------------+<-- CONV
 
 ------------------------------------------------------------------------------
 Initial State
  WF centre and spread    1  (  9.365785, 10.071634, -6.833004 )     4.09157262
  WF centre and spread    2  (  9.930567,-10.078959,  8.204768 )     5.10796157
  WF centre and spread    3  ( -9.514493,-10.009372, -6.735961 )     2.94290524
  WF centre and spread    4  ( -9.789799, 10.167331, 10.046416 )     6.69185155
  WF centre and spread    5  ( -9.652215,-10.127910, -9.673148 )     7.08389277
  WF centre and spread    6  ( -8.780533,  9.904457,  6.849623 )     1.02499971
  WF centre and spread    7  ( -9.436939, 10.139138,  8.829886 )     6.77946844
  WF centre and spread    8  (  9.959541,  9.807581,  5.489784 )     1.97502661
  WF centre and spread    9  ( -9.773110,-10.143350,  7.286908 )     4.63124683
  WF centre and spread   10  ( 10.006310, 10.169835,  9.956288 )     5.26841840
  WF centre and spread   11  (  9.071314,-10.124904, -6.915704 )     2.49967593
  WF centre and spread   12  ( -9.481692,-10.068771,  8.162620 )     6.33077127
  WF centre and spread   13  (  9.076582, 10.169885,  5.183332 )     1.70521290
  WF centre and spread   14  ( -9.628654,-10.131468, -9.773480 )     5.63650168
  WF centre and spread   15  (-10.025762, 10.180166,  8.740912 )     9.66341241
  WF centre and spread   16  (-10.086671, 10.071611, -7.707828 )     7.10772027
  WF centre and spread   17  (  9.996207,-10.101118,  8.422078 )     7.90700966
  WF centre and spread   18  ( 10.091483,-10.085174, 10.084104 )     6.97710409
  WF centre and spread   19  ( -9.799979,-10.173245,  9.543565 )     4.83744785
  WF centre and spread   20  (  8.716551,-10.101079, -7.025966 )     1.67008753
  WF centre and spread   21  ( -9.714487, 10.144956, -8.357481 )     6.56016523
  WF centre and spread   22  ( 10.102595,-10.070161,  9.952440 )     9.47740762
  WF centre and spread   23  (  8.981859, 10.143745,  9.060157 )     2.37826812
  WF centre and spread   24  (  8.432096, 10.060866, -9.716097 )     1.49962612
  WF centre and spread   25  (  9.187973, 10.052946,  8.077496 )     3.89877466
  WF centre and spread   26  (  9.880851, 10.123074,  9.442351 )     7.00009431
  WF centre and spread   27  ( 10.122505,-10.051592,  8.918162 )     7.81876818
  WF centre and spread   28  ( -9.105805, 10.011091, -6.190495 )     1.54363711
  WF centre and spread   29  ( -9.209266, 10.134578, -5.450489 )     1.77360658
  WF centre and spread   30  (-10.027068,-10.045048, -9.871187 )     8.35415535
  WF centre and spread   31  (-10.058894, 10.165189, -8.060919 )     7.39044766
  WF centre and spread   32  ( -9.696626,-10.120488,  9.172993 )     7.04579874
  WF centre and spread   33  ( -9.296169,-10.063074, -9.489077 )     3.32411939
  WF centre and spread   34  (  9.863180,-10.179716, -7.802271 )     7.29787155
  WF centre and spread   35  (  9.346428,-10.022611, -9.964361 )     4.18000281
  WF centre and spread   36  ( 10.150507, 10.141123,  8.852401 )     6.40730313
  WF centre and spread   37  ( -9.474077,-10.144690,  9.372423 )     4.19035450
  Sum of centres and spreads (-10.269905,-10.183523, 50.081238 )   190.07268838
 
      0     0.190E+03                       190.0726883815       0.02  <-- CONV
        O_D=      0.0000000 O_OD=    167.4874732 O_TOT=    190.0726884 <-- SPRD
 ------------------------------------------------------------------------------
 Cycle:      1
  WF centre and spread    1  ( 10.154813,  9.898218, -5.872733 )     2.99775877
  WF centre and spread    2  (  9.878528, 10.086296, -9.239892 )     3.60363309
  WF centre and spread    3  ( -9.604509, -9.955566, -6.042601 )     1.75295876
  WF centre and spread    4  ( 10.077669, -9.927521,  5.709426 )     2.65193598
  WF centre and spread    5  ( -9.462780, 10.160699, -9.109203 )     4.49414549
  WF centre and spread    6  ( -8.634306,  9.959430,  6.821341 )     0.78017203
  WF centre and spread    7  ( -8.608308, 10.146561,  9.427044 )     2.26196623
  WF centre and spread    8  (  9.883109,  9.692809,  5.158391 )     1.45408620
  WF centre and spread    9  ( -9.665892, 10.120045,  7.001375 )     1.90005976
  WF centre and spread   10  (  9.631659,-10.117629, -9.075544 )     2.28215219
  WF centre and spread   11  (  8.595094,-10.144562, -6.606465 )     0.94473791
  WF centre and spread   12  ( -9.509329, -9.920901,  6.246006 )     2.45105978
  WF centre and spread   13  (  8.988266, 10.175295,  4.982110 )     1.00578712
  WF centre and spread   14  ( -9.984813, 10.166483, -9.008382 )     4.92150677
  WF centre and spread   15  ( -9.460477,-10.064627,  7.255598 )     2.05623754
  WF centre and spread   16  (  9.473145,-10.030661, -7.090946 )     2.63401791
  WF centre and spread   17  (  9.466790,-10.077856,  6.060112 )     1.22780894
  WF centre and spread   18  (  9.986826,-10.107103,  7.289768 )     3.73020046
  WF centre and spread   19  ( -9.603932, 10.135051,  8.551667 )     2.67749217
  WF centre and spread   20  (  8.842640,-10.174563, -7.109827 )     1.63495888
  WF centre and spread   21  ( -9.679561, 10.164780, -6.369780 )     2.16211268
  WF centre and spread   22  ( -9.973598, -9.971973, -5.878336 )     3.08752184
  WF centre and spread   23  (  8.573118,-10.168291,  8.992769 )     1.19321592
  WF centre and spread   24  (  8.319116, 10.087684, -9.489485 )     0.91207310
  WF centre and spread   25  (  9.424762,  9.990045,  6.882767 )     1.97306549
  WF centre and spread   26  ( -9.850914, 10.128192,  7.467513 )     2.77562402
  WF centre and spread   27  ( -9.671312,-10.066547,  8.173291 )     2.72220712
  WF centre and spread   28  ( -9.211611,  9.968161, -6.453134 )     0.95453763
  WF centre and spread   29  ( -8.968771, 10.175513, -4.954001 )     0.96255032
  WF centre and spread   30  ( 10.069877,-10.036602,  9.470039 )     3.88010055
  WF centre and spread   31  (-10.051615,-10.118538, -7.104076 )     1.56851472
  WF centre and spread   32  (-10.076438, 10.142957, -8.760873 )     1.82280048
  WF centre and spread   33  ( -9.264019, -9.926414, -9.754467 )     1.85772240
  WF centre and spread   34  (  9.582915,  9.991840, -7.212735 )     2.54600568
  WF centre and spread   35  (  9.222595, -9.854215, -9.981508 )     1.54693868
  WF centre and spread   36  (  9.925152, 10.016777,  9.170613 )     2.19547449
  WF centre and spread   37  ( -9.015546, 10.001386, 10.116228 )     1.50401609
  Sum of centres and spreads (-10.201656, 30.544652,-10.337931 )    81.12715721
 
      1    -0.109E+03                        81.1271572100       0.02  <-- CONV
        O_D=      0.0000000 O_OD=     58.5419420 O_TOT=     81.1271572 <-- SPRD
 Delta: O_D=  0.0000000E+00 O_OD= -0.1089455E+03 O_TOT= -0.1089455E+03 <-- DLTA
 ------------------------------------------------------------------------------
 Cycle:      2
  WF centre and spread    1  ( -9.866724,  9.690480, -5.104604 )     1.21128040
  WF centre and spread    2  (  9.042727, 10.162582, 10.074030 )     1.01912389
  WF centre and spread    3  ( -9.613730,-10.015635, -6.572426 )     1.14719501
  WF centre and spread    4  (  9.917864, -9.615216,  5.094172 )     1.17584051
  WF centre and spread    5  ( -8.541754,-10.160866, -8.984548 )     1.18841785
  WF centre and spread    6  ( -8.483598, 10.039909,  6.783636 )     0.61037183
  WF centre and spread    7  ( -8.300472,-10.173385,  9.370209 )     0.87004145
  WF centre and spread    8  (  9.923077,  9.588711,  4.969775 )     0.73308829
  WF centre and spread    9  ( -9.125912,-10.170082,  7.185563 )     1.08370522
  WF centre and spread   10  (  9.454432, 10.034014, -9.230132 )     0.81626338
  WF centre and spread   11  (  8.669100, 10.172642, -6.512443 )     0.66830769
  WF centre and spread   12  ( -8.980931,-10.014654,  6.646058 )     0.84418414
  WF centre and spread   13  (  8.877925,-10.175229,  4.905036 )     0.66898973
  WF centre and spread   14  ( 10.054463,-10.181763, -7.967603 )     1.01112930
  WF centre and spread   15  ( -9.000801, 10.121357,  6.981978 )     1.21018999
  WF centre and spread   16  (  9.164667, -9.940997, -6.910916 )     0.89657331
  WF centre and spread   17  (  9.473982, 10.181821,  6.052872 )     0.62277022
  WF centre and spread   18  (  9.398826, -9.965253,  6.690113 )     1.00440413
  WF centre and spread   19  ( -9.393271, 10.113613,  9.033272 )     1.24204679
  WF centre and spread   20  (  8.572168,-10.124181, -7.043123 )     0.65021578
  WF centre and spread   21  ( -9.481998, 10.043922, -6.229862 )     0.80974151
  WF centre and spread   22  ( -9.951317, -9.670707, -4.971144 )     0.85727790
  WF centre and spread   23  (  8.475470,-10.178223,  8.936899 )     0.68922806
  WF centre and spread   24  (  8.241589, 10.169889, -9.363455 )     0.66091389
  WF centre and spread   25  (  9.279540,  9.943900,  6.734014 )     0.65319016
  WF centre and spread   26  (  9.864232,-10.170230,  6.846918 )     0.57846263
  WF centre and spread   27  ( -9.912258,-10.148594,  8.033872 )     0.69359743
  WF centre and spread   28  ( -9.144235,-10.103728, -6.757065 )     0.66189618
  WF centre and spread   29  ( -8.875778, 10.178042, -4.900684 )     0.68507031
  WF centre and spread   30  ( 10.093597, -9.934002,  9.178621 )     1.95653269
  WF centre and spread   31  ( -9.848680, 10.068621, -6.885178 )     0.74290286
  WF centre and spread   32  ( -9.706468, 10.075709, -9.028550 )     0.87548465
  WF centre and spread   33  ( -9.324567, -9.886725, -9.814697 )     1.70397209
  WF centre and spread   34  (  9.097320,  9.911534, -6.979009 )     0.66646717
  WF centre and spread   35  (  9.445817, -9.982115, -9.552532 )     1.97293294
  WF centre and spread   36  (  9.729143,  9.986888,  9.071252 )     0.84913497
  WF centre and spread   37  ( -9.018023,  9.951740,-10.009027 )     0.91196164
  Sum of centres and spreads ( 10.205421,-10.176210,-10.228707 )    34.64290599
 
      2    -0.465E+02                        34.6429059858       0.02  <-- CONV
        O_D=      0.0000000 O_OD=     12.0576908 O_TOT=     34.6429060 <-- SPRD
 Delta: O_D=  0.0000000E+00 O_OD= -0.4648425E+02 O_TOT= -0.4648425E+02 <-- DLTA
 ------------------------------------------------------------------------------
 Cycle:      3
  WF centre and spread    1  ( -9.919486,  9.588635, -4.969208 )     0.71245044
  WF centre and spread    2  (  8.974123, 10.130872, 10.054921 )     0.61559978
  WF centre and spread    3  ( -9.542542,-10.051716, -6.705762 )     0.87197536
  WF centre and spread    4  (  9.910692, -9.587627,  4.970354 )     0.70910224
  WF centre and spread    5  ( -8.463553,-10.179174, -8.924401 )     0.66936838
  WF centre and spread    6  ( -8.413260, 10.166771,  6.775362 )     0.50468619
  WF centre and spread    7  ( -8.241543, 10.181269,  9.319081 )     0.67694071
  WF centre and spread    8  (  9.919272,  9.586132,  4.966319 )     0.68554144
  WF centre and spread    9  ( -8.947361,-10.064986,  7.076407 )     0.66735421
  WF centre and spread   10  (  9.458862,  9.959444, -9.269534 )     1.02581660
  WF centre and spread   11  (  8.680202, 10.179734, -6.478673 )     0.57511866
  WF centre and spread   12  ( -8.999853,-10.017552,  6.630709 )     0.65138418
  WF centre and spread   13  (  8.874444, 10.177663,  4.906188 )     0.66051081
  WF centre and spread   14  (  9.954593,-10.161731, -8.032204 )     0.66394862
  WF centre and spread   15  ( -9.086480,  9.936873,  6.917242 )     0.73012946
  WF centre and spread   16  (  9.114948, -9.928520, -6.938655 )     0.62619742
  WF centre and spread   17  (  9.485522, 10.175767,  6.075332 )     0.52971709
  WF centre and spread   18  (  9.300009, -9.943949,  6.719006 )     0.64024098
  WF centre and spread   19  ( -9.464470, 10.109496,  9.182452 )     0.66995311
  WF centre and spread   20  (  8.539198,-10.162871, -7.018921 )     0.58575024
  WF centre and spread   21  ( -9.488603, 10.168159, -6.077886 )     0.53489665
  WF centre and spread   22  ( -9.915022, -9.584248, -4.966971 )     0.68129608
  WF centre and spread   23  (  8.460539,-10.179400,  8.936100 )     0.65221021
  WF centre and spread   24  (  8.244982, 10.181982, -9.324692 )     0.65632528
  WF centre and spread   25  (  9.337718,  9.934459,  6.718563 )     0.65599894
  WF centre and spread   26  (  9.850654,-10.174551,  6.830521 )     0.49024318
  WF centre and spread   27  ( -9.939043, 10.179199,  8.041209 )     0.62425629
  WF centre and spread   28  ( -9.102930, 10.121494, -6.740482 )     0.49628284
  WF centre and spread   29  ( -8.874911, 10.174285, -4.901373 )     0.66918325
  WF centre and spread   30  (  9.945086, -9.884493,  9.155243 )     1.59237523
  WF centre and spread   31  ( -9.833223, 10.101238, -6.852143 )     0.48203763
  WF centre and spread   32  ( -9.679760, 10.098408, -9.061501 )     0.64443082
  WF centre and spread   33  ( -9.232407, -9.880542, -9.919747 )     1.53447012
  WF centre and spread   34  (  9.102230,  9.936499, -6.960405 )     0.63345007
  WF centre and spread   35  (  9.484174, -9.894123, -9.425312 )     1.58712313
  WF centre and spread   36  (  9.763844,  9.945632,  9.092229 )     1.07336918
  WF centre and spread   37  ( -9.059424,  9.941067,-10.012367 )     1.04758895
  Sum of centres and spreads ( 10.197220, 71.279595,-10.213000 )    27.52732374
 
      3    -0.712E+01                        27.5273237419       0.02  <-- CONV
        O_D=      0.0000000 O_OD=      4.9421085 O_TOT=     27.5273237 <-- SPRD
 Delta: O_D=  0.0000000E+00 O_OD= -0.7115582E+01 O_TOT= -0.7115582E+01 <-- DLTA
 ------------------------------------------------------------------------------
 Cycle:      4
  WF centre and spread    1  ( -9.921109,  9.586571, -4.967296 )     0.68258045
  WF centre and spread    2  (  8.965456, 10.142570, 10.050723 )     0.61213283
  WF centre and spread    3  ( -9.525748, -9.924972, -6.722617 )     0.70432158
  WF centre and spread    4  (  9.910728, -9.583846,  4.967029 )     0.68967248
  WF centre and spread    5  ( -8.462595, 10.180989, -8.927431 )     0.65977838
  WF centre and spread    6  ( -8.423342, 10.174409,  6.755060 )     0.50548210
  WF centre and spread    7  ( -8.241712, 10.179738,  9.318931 )     0.65873646
  WF centre and spread    8  (  9.917401,  9.585971,  4.967679 )     0.68864397
  WF centre and spread    9  ( -9.014040, -9.955451,  7.062306 )     0.61451963
  WF centre and spread   10  (  9.484076,  9.926758, -9.289204 )     1.17161379
  WF centre and spread   11  (  8.712386,-10.181253, -6.478121 )     0.57052046
  WF centre and spread   12  ( -8.930180,-10.122892,  6.589611 )     0.65027889
  WF centre and spread   13  (  8.875478, 10.174059,  4.908040 )     0.66505784
  WF centre and spread   14  (  9.941945, 10.180309, -8.040410 )     0.63002566
  WF centre and spread   15  ( -9.074702,  9.927280,  6.981748 )     0.67370928
  WF centre and spread   16  (  9.107568, -9.925229, -6.953502 )     0.63040467
  WF centre and spread   17  (  9.486451, 10.180356,  6.076426 )     0.53435605
  WF centre and spread   18  (  9.291634, -9.947777,  6.719150 )     0.62862524
  WF centre and spread   19  ( -9.462162, 10.135396,  9.182470 )     0.64032707
  WF centre and spread   20  (  8.510508,-10.171093, -6.999878 )     0.57114088
  WF centre and spread   21  ( -9.480013, 10.169441, -6.079347 )     0.54258792
  WF centre and spread   22  ( -9.913754, -9.584075, -4.967103 )     0.68462807
  WF centre and spread   23  (  8.460957,-10.179175,  8.936833 )     0.65482125
  WF centre and spread   24  (  8.246581,-10.179600, -9.325163 )     0.66060395
  WF centre and spread   25  (  9.344282,  9.928574,  6.716543 )     0.65636710
  WF centre and spread   26  (  9.850710,-10.169700,  6.830900 )     0.48778533
  WF centre and spread   27  ( -9.937782, 10.178199,  8.040942 )     0.62590385
  WF centre and spread   28  ( -9.140752, 10.061019, -6.729727 )     0.53637839
  WF centre and spread   29  ( -8.874984, 10.173983, -4.901399 )     0.66945614
  WF centre and spread   30  (  9.853965, -9.880955,  9.154966 )     1.44257576
  WF centre and spread   31  ( -9.810793, 10.050981, -6.824342 )     0.51274361
  WF centre and spread   32  ( -9.680041, 10.133994, -9.051274 )     0.62777465
  WF centre and spread   33  ( -9.170918, -9.879984, -9.993256 )     1.38853639
  WF centre and spread   34  (  9.103579,  9.939133, -6.962874 )     0.62556093
  WF centre and spread   35  (  9.519038, -9.886068, -9.346471 )     1.41354394
  WF centre and spread   36  (  9.766973,  9.921089,  9.116608 )     1.19573138
  WF centre and spread   37  ( -9.086285,  9.918204,-10.025947 )     1.16269552
  Sum of centres and spreads ( 10.198807, 71.276952,-10.209398 )    27.06962191
 
      4    -0.458E+00                        27.0696219112       0.02  <-- CONV
        O_D=      0.0000000 O_OD=      4.4844067 O_TOT=     27.0696219 <-- SPRD
 Delta: O_D=  0.0000000E+00 O_OD= -0.4577018E+00 O_TOT= -0.4577018E+00 <-- DLTA
 ------------------------------------------------------------------------------
 Cycle:      5
  WF centre and spread    1  ( -9.921102,  9.586597, -4.967333 )     0.68255277
  WF centre and spread    2  (  8.963892, 10.155916, 10.048983 )     0.60977292
  WF centre and spread    3  ( -9.545171, -9.926622, -6.728126 )     0.69960016
  WF centre and spread    4  (  9.910386, -9.583797,  4.967124 )     0.69009418
  WF centre and spread    5  ( -8.463074, 10.180366, -8.927189 )     0.66050133
  WF centre and spread    6  ( -8.436939, 10.166866,  6.839479 )     0.53182414
  WF centre and spread    7  ( -8.242069, 10.179972,  9.318621 )     0.65919770
  WF centre and spread    8  (  9.917827,  9.586024,  4.967520 )     0.68801165
  WF centre and spread    9  ( -9.050071, -9.923594,  7.027746 )     0.63284589
  WF centre and spread   10  (  9.509029,  9.913361, -9.286536 )     1.23806933
  WF centre and spread   11  (  8.729906,-10.177201, -6.475967 )     0.57346108
  WF centre and spread   12  ( -8.870967,-10.153201,  6.527327 )     0.62408201
  WF centre and spread   13  (  8.875456, 10.173972,  4.908047 )     0.66504224
  WF centre and spread   14  (  9.941694, 10.178393, -8.040252 )     0.63086728
  WF centre and spread   15  ( -9.084125,  9.935124,  6.993263 )     0.62932296
  WF centre and spread   16  (  9.103991, -9.927468, -6.963028 )     0.63196105
  WF centre and spread   17  (  9.486080, 10.181634,  6.076161 )     0.53369220
  WF centre and spread   18  (  9.276221, -9.954052,  6.720890 )     0.61917100
  WF centre and spread   19  ( -9.459363, 10.155002,  9.183021 )     0.63313962
  WF centre and spread   20  (  8.497999,-10.173507, -6.988833 )     0.56513934
  WF centre and spread   21  ( -9.477519, 10.172039, -6.078069 )     0.54015932
  WF centre and spread   22  ( -9.913749, -9.584092, -4.967074 )     0.68456463
  WF centre and spread   23  (  8.461144,-10.178603,  8.937135 )     0.65571626
  WF centre and spread   24  (  8.246696,-10.178846, -9.325815 )     0.66153694
  WF centre and spread   25  (  9.361055,  9.925395,  6.715661 )     0.66473632
  WF centre and spread   26  (  9.849884,-10.162018,  6.830402 )     0.48858859
  WF centre and spread   27  ( -9.937428, 10.178064,  8.041119 )     0.62594538
  WF centre and spread   28  ( -9.133320, 10.076288, -6.730837 )     0.53214414
  WF centre and spread   29  ( -8.875012, 10.173949, -4.901354 )     0.66947847
  WF centre and spread   30  (  9.801654, -9.887346,  9.155746 )     1.37066998
  WF centre and spread   31  ( -9.801032, 10.035474, -6.819365 )     0.52122052
  WF centre and spread   32  ( -9.680936, 10.155373, -9.048436 )     0.62262645
  WF centre and spread   33  ( -9.140402, -9.886570,-10.030328 )     1.31841162
  WF centre and spread   34  (  9.101759,  9.939985, -6.966288 )     0.62718812
  WF centre and spread   35  (  9.535201, -9.891610, -9.311700 )     1.35224026
  WF centre and spread   36  (  9.762091,  9.908778,  9.133057 )     1.25293912
  WF centre and spread   37  ( -9.100209,  9.905509,-10.042025 )     1.21549518
  Sum of centres and spreads ( 10.199477, 71.275556,-10.207254 )    27.00201015
 
      5    -0.676E-01                        27.0020101500       0.02  <-- CONV
        O_D=      0.0000000 O_OD=      4.4167949 O_TOT=     27.0020101 <-- SPRD
 Delta: O_D=  0.0000000E+00 O_OD= -0.6761176E-01 O_TOT= -0.6761176E-01 <-- DLTA
 ------------------------------------------------------------------------------
 Cycle:      6
  WF centre and spread    1  ( -9.921095,  9.586572, -4.967353 )     0.68237473
  WF centre and spread    2  (  8.963516, 10.165856, 10.048569 )     0.60856147
  WF centre and spread    3  ( -9.560940, -9.927339, -6.731791 )     0.69439492
  WF centre and spread    4  (  9.910373, -9.583798,  4.967121 )     0.69004034
  WF centre and spread    5  ( -8.463269, 10.180157, -8.927067 )     0.66066920
  WF centre and spread    6  ( -8.450504, 10.175459,  6.904466 )     0.54018815
  WF centre and spread    7  ( -8.242161, 10.180073,  9.318581 )     0.65941612
  WF centre and spread    8  (  9.917837,  9.586026,  4.967515 )     0.68800313
  WF centre and spread    9  ( -9.078808, -9.921262,  7.000339 )     0.63443101
  WF centre and spread   10  (  9.525799,  9.905869, -9.282832 )     1.26662906
  WF centre and spread   11  (  8.739056,-10.175283, -6.475971 )     0.57570100
  WF centre and spread   12  ( -8.819928,-10.168064,  6.496788 )     0.60530144
  WF centre and spread   13  (  8.875454, 10.173971,  4.908062 )     0.66507157
  WF centre and spread   14  (  9.941765, 10.178313, -8.040232 )     0.63139026
  WF centre and spread   15  ( -9.093290,  9.939392,  6.985588 )     0.62150197
  WF centre and spread   16  (  9.102542, -9.928984, -6.967027 )     0.63206401
  WF centre and spread   17  (  9.485900,-10.181376,  6.076183 )     0.53368901
  WF centre and spread   18  (  9.254635, -9.964125,  6.722455 )     0.60575638
  WF centre and spread   19  ( -9.458477, 10.166682,  9.183640 )     0.63003802
  WF centre and spread   20  (  8.491376,-10.173913, -6.983047 )     0.56144385
  WF centre and spread   21  ( -9.476894, 10.172350, -6.077992 )     0.54025607
  WF centre and spread   22  ( -9.913725, -9.584096, -4.967073 )     0.68446225
  WF centre and spread   23  (  8.461171,-10.178401,  8.937240 )     0.65602072
  WF centre and spread   24  (  8.246638,-10.178597, -9.326096 )     0.66163679
  WF centre and spread   25  (  9.384641,  9.921655,  6.715054 )     0.67515541
  WF centre and spread   26  (  9.848152,-10.149693,  6.829596 )     0.49058014
  WF centre and spread   27  ( -9.937124, 10.178647,  8.041232 )     0.62517948
  WF centre and spread   28  ( -9.127449, 10.088601, -6.731090 )     0.52824811
  WF centre and spread   29  ( -8.875020, 10.173947, -4.901347 )     0.66948428
  WF centre and spread   30  (  9.776794, -9.892977,  9.155647 )     1.33772295
  WF centre and spread   31  ( -9.791674, 10.023516, -6.815631 )     0.52948096
  WF centre and spread   32  ( -9.681716, 10.167195, -9.047422 )     0.62126797
  WF centre and spread   33  ( -9.127052, -9.891637,-10.048019 )     1.29010730
  WF centre and spread   34  (  9.100465,  9.939991, -6.967976 )     0.62887931
  WF centre and spread   35  (  9.542363, -9.896273, -9.295947 )     1.32812018
  WF centre and spread   36  (  9.757378,  9.902390,  9.142686 )     1.27792387
  WF centre and spread   37  ( -9.107282,  9.899611,-10.052589 )     1.24032422
  Sum of centres and spreads ( 10.199447, 50.910454,-10.205740 )    26.97151566
 
      6    -0.305E-01                        26.9715156560       0.02  <-- CONV
        O_D=      0.0000000 O_OD=      4.3863004 O_TOT=     26.9715157 <-- SPRD
 Delta: O_D=  0.0000000E+00 O_OD= -0.3049449E-01 O_TOT= -0.3049449E-01 <-- DLTA
 ------------------------------------------------------------------------------
 Cycle:      7
  WF centre and spread    1  ( -9.921074,  9.586569, -4.967353 )     0.68228413
  WF centre and spread    2  (  8.963447, 10.171941, 10.048575 )     0.60817037
  WF centre and spread    3  ( -9.573504, -9.928213, -6.734993 )     0.68936982
  WF centre and spread    4  (  9.910365, -9.583815,  4.967113 )     0.68995340
  WF centre and spread    5  ( -8.463350, 10.180083, -8.926997 )     0.66068242
  WF centre and spread    6  ( -8.466640,-10.181023,  6.940512 )     0.54793840
  WF centre and spread    7  ( -8.242192, 10.180062,  9.318564 )     0.65949789
  WF centre and spread    8  (  9.917819,  9.586022,  4.967520 )     0.68799534
  WF centre and spread    9  ( -9.092089, -9.925038,  6.985554 )     0.63293352
  WF centre and spread   10  (  9.535385,  9.901880, -9.280921 )     1.28136561
  WF centre and spread   11  (  8.743188,-10.174335, -6.476024 )     0.57662281
  WF centre and spread   12  ( -8.786907,-10.172208,  6.482761 )     0.59108936
  WF centre and spread   13  (  8.875454, 10.173978,  4.908066 )     0.66507185
  WF centre and spread   14  (  9.941792, 10.178335, -8.040204 )     0.63169254
  WF centre and spread   15  ( -9.097236,  9.939613,  6.978141 )     0.62371744
  WF centre and spread   16  (  9.101917, -9.929889, -6.968816 )     0.63202627
  WF centre and spread   17  (  9.485583,-10.180127,  6.076182 )     0.53368809
  WF centre and spread   18  (  9.227095, -9.980124,  6.724371 )     0.58833726
  WF centre and spread   19  ( -9.458274, 10.172864,  9.184038 )     0.62882062
  WF centre and spread   20  (  8.488456,-10.173957, -6.980409 )     0.55977983
  WF centre and spread   21  ( -9.476602, 10.172701, -6.077994 )     0.54038768
  WF centre and spread   22  ( -9.913702, -9.584103, -4.967070 )     0.68437958
  WF centre and spread   23  (  8.461160,-10.178349,  8.937282 )     0.65612363
  WF centre and spread   24  (  8.246586,-10.178505, -9.326208 )     0.66159796
  WF centre and spread   25  (  9.416109,  9.918547,  6.714749 )     0.68722819
  WF centre and spread   26  (  9.844618,-10.132292,  6.828155 )     0.49417605
  WF centre and spread   27  ( -9.936942, 10.179284,  8.041276 )     0.62477934
  WF centre and spread   28  ( -9.123289, 10.098298, -6.731169 )     0.52540019
  WF centre and spread   29  ( -8.875022, 10.173948, -4.901347 )     0.66948287
  WF centre and spread   30  (  9.765060, -9.896423,  9.155413 )     1.32221451
  WF centre and spread   31  ( -9.783534, 10.014244, -6.812457 )     0.53662226
  WF centre and spread   32  ( -9.682233, 10.173239, -9.047030 )     0.62105329
  WF centre and spread   33  ( -9.120911, -9.894590,-10.056515 )     1.27762993
  WF centre and spread   34  (  9.099754,  9.939945, -6.968697 )     0.63004273
  WF centre and spread   35  (  9.545555, -9.898990, -9.288314 )     1.31591708
  WF centre and spread   36  (  9.754380,  9.899145,  9.147981 )     1.28971426
  WF centre and spread   37  ( -9.110899,  9.896846,-10.058468 )     1.25272067
  Sum of centres and spreads ( 10.199323, 30.545564,-10.204732 )    26.96050721
 
      7    -0.110E-01                        26.9605072051       0.02  <-- CONV
        O_D=      0.0000000 O_OD=      4.3752920 O_TOT=     26.9605072 <-- SPRD
 Delta: O_D=  0.0000000E+00 O_OD= -0.1100845E-01 O_TOT= -0.1100845E-01 <-- DLTA
 ------------------------------------------------------------------------------
 Cycle:      8
  WF centre and spread    1  ( -9.921056,  9.586567, -4.967353 )     0.68221601
  WF centre and spread    2  (  8.963454, 10.175341, 10.048632 )     0.60807270
  WF centre and spread    3  ( -9.583700, -9.929092, -6.737826 )     0.68467664
  WF centre and spread    4  (  9.910343, -9.583841,  4.967102 )     0.68981742
  WF centre and spread    5  ( -8.463384, 10.180059, -8.926962 )     0.66067642
  WF centre and spread    6  ( -8.476481,-10.176899,  6.957088 )     0.55222219
  WF centre and spread    7  ( -8.242203, 10.180035,  9.318550 )     0.65952409
  WF centre and spread    8  (  9.917792,  9.586012,  4.967527 )     0.68792344
  WF centre and spread    9  ( -9.097910, -9.928151,  6.978411 )     0.63139766
  WF centre and spread   10  (  9.540521,  9.899820, -9.280025 )     1.28922870
  WF centre and spread   11  (  8.744990,-10.173893, -6.476077 )     0.57702515
  WF centre and spread   12  ( -8.770109,-10.173048,  6.477537 )     0.58377914
  WF centre and spread   13  (  8.875458, 10.173986,  4.908066 )     0.66506169
  WF centre and spread   14  (  9.941793, 10.178369, -8.040181 )     0.63187692
  WF centre and spread   15  ( -9.098550,  9.939223,  6.973832 )     0.62698760
  WF centre and spread   16  (  9.101655, -9.930354, -6.969578 )     0.63201869
  WF centre and spread   17  (  9.485025,-10.178612,  6.076164 )     0.53370103
  WF centre and spread   18  (  9.198806,-10.001452,  6.726178 )     0.57023657
  WF centre and spread   19  ( -9.458234, 10.176025,  9.184256 )     0.62831964
  WF centre and spread   20  (  8.487184,-10.173935, -6.979259 )     0.55904907
  WF centre and spread   21  ( -9.476390, 10.173086, -6.077992 )     0.54048595
  WF centre and spread   22  ( -9.913684, -9.584111, -4.967067 )     0.68431289
  WF centre and spread   23  (  8.461145,-10.178331,  8.937303 )     0.65615603
  WF centre and spread   24  (  8.246557,-10.178465, -9.326257 )     0.66156302
  WF centre and spread   25  (  9.450936,  9.917112,  6.715198 )     0.69744886
  WF centre and spread   26  (  9.838716,-10.111402,  6.826105 )     0.49946247
  WF centre and spread   27  ( -9.936823, 10.179741,  8.041278 )     0.62472366
  WF centre and spread   28  ( -9.120337, 10.106035, -6.731199 )     0.52337739
  WF centre and spread   29  ( -8.875023, 10.173950, -4.901346 )     0.66948207
  WF centre and spread   30  (  9.759334, -9.898314,  9.155243 )     1.31460466
  WF centre and spread   31  ( -9.776493, 10.006901, -6.809689 )     0.54278039
  WF centre and spread   32  ( -9.682522, 10.176263, -9.046855 )     0.62108564
  WF centre and spread   33  ( -9.117958, -9.896163,-10.060671 )     1.27170024
  WF centre and spread   34  (  9.099413,  9.939906, -6.968971 )     0.63067877
  WF centre and spread   35  (  9.547030, -9.900454, -9.284511 )     1.30942238
  WF centre and spread   36  (  9.752698,  9.897495,  9.150804 )     1.29563427
  WF centre and spread   37  ( -9.112743,  9.895502,-10.061579 )     1.25899869
  Sum of centres and spreads ( 10.199250, 30.544912,-10.204126 )    26.95572812
 
      8    -0.478E-02                        26.9557281245       0.02  <-- CONV
        O_D=      0.0000000 O_OD=      4.3705129 O_TOT=     26.9557281 <-- SPRD
 Delta: O_D=  0.0000000E+00 O_OD= -0.4779081E-02 O_TOT= -0.4779081E-02 <-- DLTA
 ------------------------------------------------------------------------------
 Cycle:      9
  WF centre and spread    1  ( -9.921042,  9.586564, -4.967355 )     0.68216306
  WF centre and spread    2  (  8.963471, 10.177160, 10.048676 )     0.60805429
  WF centre and spread    3  ( -9.592146, -9.929962, -6.740313 )     0.68041916
  WF centre and spread    4  (  9.910305, -9.583871,  4.967089 )     0.68963542
  WF centre and spread    5  ( -8.463400, 10.180051, -8.926945 )     0.66067137
  WF centre and spread    6  ( -8.481413,-10.174993,  6.964333 )     0.55437696
  WF centre and spread    7  ( -8.242207, 10.180016,  9.318541 )     0.65953128
  WF centre and spread    8  (  9.917758,  9.585999,  4.967535 )     0.68778415
  WF centre and spread    9  ( -9.100362, -9.929925,  6.975280 )     0.63053053
  WF centre and spread   10  (  9.543198,  9.898766, -9.279594 )     1.29334702
  WF centre and spread   11  (  8.745753,-10.173686, -6.476103 )     0.57718811
  WF centre and spread   12  ( -8.762371,-10.173039,  6.475487 )     0.58032424
  WF centre and spread   13  (  8.875465, 10.173993,  4.908066 )     0.66504557
  WF centre and spread   14  (  9.941782, 10.178409, -8.040165 )     0.63200222
  WF centre and spread   15  ( -9.098957,  9.938922,  6.971658 )     0.62914649
  WF centre and spread   16  (  9.101545, -9.930590, -6.969902 )     0.63203571
  WF centre and spread   17  (  9.484239,-10.177184,  6.076120 )     0.53370230
  WF centre and spread   18  (  9.175225,-10.024533,  6.727465 )     0.55508544
  WF centre and spread   19  ( -9.458227, 10.177629,  9.184370 )     0.62810073
  WF centre and spread   20  (  8.486647,-10.173914, -6.978774 )     0.55874720
  WF centre and spread   21  ( -9.476220, 10.173466, -6.077986 )     0.54055691
  WF centre and spread   22  ( -9.913670, -9.584118, -4.967065 )     0.68425846
  WF centre and spread   23  (  8.461136,-10.178324,  8.937313 )     0.65616869
  WF centre and spread   24  (  8.246541,-10.178446, -9.326280 )     0.66154222
  WF centre and spread   25  (  9.483375,  9.917276,  6.716700 )     0.70315484
  WF centre and spread   26  (  9.830716,-10.090099,  6.823587 )     0.50611443
  WF centre and spread   27  ( -9.936729, 10.180007,  8.041258 )     0.62484990
  WF centre and spread   28  ( -9.118166, 10.112359, -6.731214 )     0.52189194
  WF centre and spread   29  ( -8.875025, 10.173952, -4.901346 )     0.66948169
  WF centre and spread   30  (  9.756467, -9.899310,  9.155146 )     1.31082079
  WF centre and spread   31  ( -9.770387, 10.000975, -6.807271 )     0.54809674
  WF centre and spread   32  ( -9.682673, 10.177774, -9.046770 )     0.62113858
  WF centre and spread   33  ( -9.116501, -9.896974,-10.062740 )     1.26877857
  WF centre and spread   34  (  9.099253,  9.939883, -6.969055 )     0.63102201
  WF centre and spread   35  (  9.547741, -9.901221, -9.282598 )     1.30603938
  WF centre and spread   36  (  9.751790,  9.896655,  9.152283 )     1.29868622
  WF centre and spread   37  ( -9.113679,  9.894836,-10.063194 )     1.26218114
  Sum of centres and spreads ( 10.199230, 30.544499,-10.203766 )    26.95267376
 
      9    -0.305E-02                        26.9526737554       0.02  <-- CONV
        O_D=      0.0000000 O_OD=      4.3674585 O_TOT=     26.9526738 <-- SPRD
 Delta: O_D=  0.0000000E+00 O_OD= -0.3054369E-02 O_TOT= -0.3054369E-02 <-- DLTA
 ------------------------------------------------------------------------------
 Cycle:     10
  WF centre and spread    1  ( -9.921032,  9.586561, -4.967357 )     0.68212136
  WF centre and spread    2  (  8.963484, 10.178112, 10.048701 )     0.60805375
  WF centre and spread    3  ( -9.599262, -9.930805, -6.742498 )     0.67659159
  WF centre and spread    4  (  9.910259, -9.583899,  4.967077 )     0.68943638
  WF centre and spread    5  ( -8.463407, 10.180050, -8.926938 )     0.66066839
  WF centre and spread    6  ( -8.483627,-10.174155,  6.967422 )     0.55537289
  WF centre and spread    7  ( -8.242207, 10.180004,  9.318535 )     0.65953336
  WF centre and spread    8  (  9.917720,  9.585990,  4.967544 )     0.68760690
  WF centre and spread    9  ( -9.101393, -9.930859,  6.973952 )     0.63014799
  WF centre and spread   10  (  9.544578,  9.898228, -9.279379 )     1.29548154
  WF centre and spread   11  (  8.746072,-10.173585, -6.476116 )     0.57725266
  WF centre and spread   12  ( -8.759010,-10.172894,  6.474665 )     0.57878506
  WF centre and spread   13  (  8.875473, 10.173996,  4.908065 )     0.66502917
  WF centre and spread   14  (  9.941768, 10.178451, -8.040154 )     0.63209413
  WF centre and spread   15  ( -9.099062,  9.938769,  6.970587 )     0.63041269
  WF centre and spread   16  (  9.101499, -9.930716, -6.970041 )     0.63206051
  WF centre and spread   17  (  9.483377,-10.176185,  6.076066 )     0.53371943
  WF centre and spread   18  (  9.158048,-10.045820,  6.728194 )     0.54404644
  WF centre and spread   19  ( -9.458228, 10.178440,  9.184429 )     0.62800057
  WF centre and spread   20  (  8.486422,-10.173900, -6.978572 )     0.55862780
  WF centre and spread   21  ( -9.476080, 10.173824, -6.077979 )     0.54061037
  WF centre and spread   22  ( -9.913659, -9.584125, -4.967062 )     0.68421390
  WF centre and spread   23  (  8.461131,-10.178320,  8.937319 )     0.65617529
  WF centre and spread   24  (  8.246532,-10.178436, -9.326292 )     0.66153073
  WF centre and spread   25  (  9.510609,  9.918277,  6.719092 )     0.70442187
  WF centre and spread   26  (  9.821580,-10.070845,  6.820766 )     0.51346821
  WF centre and spread   27  ( -9.936649, 10.180132,  8.041230 )     0.62504462
  WF centre and spread   28  ( -9.116520, 10.117627, -6.731222 )     0.52076810
  WF centre and spread   29  ( -8.875026, 10.173953, -4.901346 )     0.66948154
  WF centre and spread   30  (  9.755008, -9.899826,  9.155097 )     1.30894350
  WF centre and spread   31  ( -9.765057,  9.996107, -6.805150 )     0.55271630
  WF centre and spread   32  ( -9.682751, 10.178532, -9.046728 )     0.62117383
  WF centre and spread   33  ( -9.115772, -9.897389,-10.063783 )     1.26731613
  WF centre and spread   34  (  9.099176,  9.939868, -6.969065 )     0.63121679
  WF centre and spread   35  (  9.548094, -9.901618, -9.281630 )     1.30430405
  WF centre and spread   36  (  9.751301,  9.896228,  9.153052 )     1.30027565
  WF centre and spread   37  ( -9.114152,  9.894501,-10.064026 )     1.26379286
  Sum of centres and spreads ( 10.199238, 30.544275,-10.203545 )    26.95049635
 
     10    -0.218E-02                        26.9504963516       0.02  <-- CONV
        O_D=      0.0000000 O_OD=      4.3652811 O_TOT=     26.9504964 <-- SPRD
 Delta: O_D=  0.0000000E+00 O_OD= -0.2177404E-02 O_TOT= -0.2177404E-02 <-- DLTA
 ------------------------------------------------------------------------------
 Cycle:     11
  WF centre and spread    1  ( -9.921024,  9.586557, -4.967359 )     0.68208814
  WF centre and spread    2  (  8.963492, 10.178604, 10.048716 )     0.60805581
  WF centre and spread    3  ( -9.605342, -9.931611, -6.744425 )     0.67315933
  WF centre and spread    4  (  9.910213, -9.583918,  4.967069 )     0.68925176
  WF centre and spread    5  ( -8.463410, 10.180049, -8.926934 )     0.66066675
  WF centre and spread    6  ( -8.484566,-10.173799,  6.968713 )     0.55583015
  WF centre and spread    7  ( -8.242207, 10.179999,  9.318532 )     0.65953421
  WF centre and spread    8  (  9.917685,  9.585985,  4.967552 )     0.68742934
  WF centre and spread    9  ( -9.101814, -9.931341,  6.973388 )     0.63003576
  WF centre and spread   10  (  9.545288,  9.897954, -9.279270 )     1.29658510
  WF centre and spread   11  (  8.746206,-10.173530, -6.476123 )     0.57727690
  WF centre and spread   12  ( -8.757601,-10.172773,  6.474332 )     0.57811327
  WF centre and spread   13  (  8.875480, 10.173996,  4.908063 )     0.66501596
  WF centre and spread   14  (  9.941754, 10.178491, -8.040145 )     0.63216502
  WF centre and spread   15  ( -9.099071,  9.938716,  6.970059 )     0.63114630
  WF centre and spread   16  (  9.101479, -9.930791, -6.970104 )     0.63208398
  WF centre and spread   17  (  9.482584,-10.175682,  6.076018 )     0.53377528
  WF centre and spread   18  (  9.146216,-10.063781,  6.728538 )     0.53644306
  WF centre and spread   19  ( -9.458230, 10.178852,  9.184459 )     0.62795373
  WF centre and spread   20  (  8.486328,-10.173890, -6.978489 )     0.55858396
  WF centre and spread   21  ( -9.475965, 10.174156, -6.077971 )     0.54065176
  WF centre and spread   22  ( -9.913649, -9.584131, -4.967060 )     0.68417720
  WF centre and spread   23  (  8.461128,-10.178318,  8.937322 )     0.65617931
  WF centre and spread   24  (  8.246528,-10.178431, -9.326298 )     0.66152463
  WF centre and spread   25  (  9.532582,  9.919543,  6.721983 )     0.70271907
  WF centre and spread   26  (  9.812278,-10.054595,  6.817809 )     0.52089127
  WF centre and spread   27  ( -9.936580, 10.180170,  8.041203 )     0.62524768
  WF centre and spread   28  ( -9.115241, 10.122086, -6.731226 )     0.51989583
  WF centre and spread   29  ( -8.875027, 10.173954, -4.901346 )     0.66948151
  WF centre and spread   30  (  9.754256, -9.900089,  9.155075 )     1.30802233
  WF centre and spread   31  ( -9.760375,  9.992045, -6.803280 )     0.55675877
  WF centre and spread   32  ( -9.682790, 10.178913, -9.046706 )     0.62119354
  WF centre and spread   33  ( -9.115404, -9.897600,-10.064314 )     1.26657848
  WF centre and spread   34  (  9.099136,  9.939858, -6.969046 )     0.63133893
  WF centre and spread   35  (  9.548274, -9.901822, -9.281138 )     1.30342150
  WF centre and spread   36  (  9.751036,  9.896012,  9.153452 )     1.30110778
  WF centre and spread   37  ( -9.114390,  9.894333,-10.064454 )     1.26460810
  Sum of centres and spreads ( 10.199255, 30.544171,-10.203404 )    26.94899151
 
     11    -0.150E-02                        26.9489915112       0.02  <-- CONV
        O_D=      0.0000000 O_OD=      4.3637763 O_TOT=     26.9489915 <-- SPRD
 Delta: O_D=  0.0000000E+00 O_OD= -0.1504840E-02 O_TOT= -0.1504840E-02 <-- DLTA
 ------------------------------------------------------------------------------
 Cycle:     12
  WF centre and spread    1  ( -9.921017,  9.586554, -4.967361 )     0.68206138
  WF centre and spread    2  (  8.963496, 10.178857, 10.048723 )     0.60805738
  WF centre and spread    3  ( -9.610598, -9.932375, -6.746134 )     0.67007946
  WF centre and spread    4  (  9.910174, -9.583930,  4.967064 )     0.68909708
  WF centre and spread    5  ( -8.463412, 10.180049, -8.926933 )     0.66066588
  WF centre and spread    6  ( -8.484946,-10.173655,  6.969239 )     0.55604446
  WF centre and spread    7  ( -8.242207, 10.179995,  9.318530 )     0.65953472
  WF centre and spread    8  (  9.917654,  9.585986,  4.967558 )     0.68727289
  WF centre and spread    9  ( -9.101976, -9.931590,  6.973136 )     0.63005956
  WF centre and spread   10  (  9.545653,  9.897814, -9.279213 )     1.29715715
  WF centre and spread   11  (  8.746262,-10.173496, -6.476127 )     0.57728506
  WF centre and spread   12  ( -8.757032,-10.172698,  6.474202 )     0.57782225
  WF centre and spread   13  (  8.875487, 10.173994,  4.908062 )     0.66500658
  WF centre and spread   14  (  9.941742, 10.178528, -8.040138 )     0.63222153
  WF centre and spread   15  ( -9.099056,  9.938720,  6.969797 )     0.63157765
  WF centre and spread   16  (  9.101472, -9.930841, -6.970135 )     0.63210302
  WF centre and spread   17  (  9.481918,-10.175561,  6.075982 )     0.53386156
  WF centre and spread   18  (  9.138122,-10.078395,  6.728667 )     0.53124374
  WF centre and spread   19  ( -9.458231, 10.179061,  9.184475 )     0.62793189
  WF centre and spread   20  (  8.486287,-10.173883, -6.978453 )     0.55857038
  WF centre and spread   21  ( -9.475870, 10.174460, -6.077963 )     0.54068447
  WF centre and spread   22  ( -9.913642, -9.584137, -4.967058 )     0.68414674
  WF centre and spread   23  (  8.461127,-10.178318,  8.937324 )     0.65618188
  WF centre and spread   24  (  8.246525,-10.178428, -9.326301 )     0.66152146
  WF centre and spread   25  (  9.550235,  9.920816,  6.725028 )     0.69942437
  WF centre and spread   26  (  9.803419,-10.041280,  6.814870 )     0.52796939
  WF centre and spread   27  ( -9.936523, 10.180161,  8.041179 )     0.62543317
  WF centre and spread   28  ( -9.114224, 10.125910, -6.731228 )     0.51920430
  WF centre and spread   29  ( -8.875027, 10.173955, -4.901346 )     0.66948155
  WF centre and spread   30  (  9.753864, -9.900221,  9.155067 )     1.30757998
  WF centre and spread   31  ( -9.756235,  9.988612, -6.801620 )     0.56032040
  WF centre and spread   32  ( -9.682810, 10.179105, -9.046695 )     0.62120388
  WF centre and spread   33  ( -9.115217, -9.897707,-10.064586 )     1.26620480
  WF centre and spread   34  (  9.099113,  9.939848, -6.969018 )     0.63142445
  WF centre and spread   35  (  9.548368, -9.901927, -9.280887 )     1.30297553
  WF centre and spread   36  (  9.750889,  9.895905,  9.153659 )     1.30154618
  WF centre and spread   37  ( -9.114510,  9.894247,-10.064675 )     1.26501976
  Sum of centres and spreads ( 10.199275, 30.544136,-10.203312 )    26.94797593
 
     12    -0.102E-02                        26.9479759264       0.02  <-- CONV
        O_D=      0.0000000 O_OD=      4.3627607 O_TOT=     26.9479759 <-- SPRD
 Delta: O_D=  0.0000000E+00 O_OD= -0.1015585E-02 O_TOT= -0.1015585E-02 <-- DLTA
 ------------------------------------------------------------------------------
 Cycle:     13
  WF centre and spread    1  ( -9.921012,  9.586551, -4.967363 )     0.68203958
  WF centre and spread    2  (  8.963499, 10.178986, 10.048727 )     0.60805821
  WF centre and spread    3  ( -9.615185, -9.933098, -6.747655 )     0.66730985
  WF centre and spread    4  (  9.910142, -9.583936,  4.967063 )     0.68897365
  WF centre and spread    5  ( -8.463413, 10.180050, -8.926932 )     0.66066541
  WF centre and spread    6  ( -8.485090,-10.173600,  6.969445 )     0.55615043
  WF centre and spread    7  ( -8.242207, 10.179993,  9.318528 )     0.65953512
  WF centre and spread    8  (  9.917629,  9.585989,  4.967561 )     0.68714297
  WF centre and spread    9  ( -9.102028, -9.931718,  6.973007 )     0.63014513
  WF centre and spread   10  (  9.545842,  9.897742, -9.279183 )     1.29745598
  WF centre and spread   11  (  8.746287,-10.173471, -6.476130 )     0.57728695
  WF centre and spread   12  ( -8.756814,-10.172663,  6.474154 )     0.57769581
  WF centre and spread   13  (  8.875492, 10.173992,  4.908061 )     0.66500035
  WF centre and spread   14  (  9.941731, 10.178562, -8.040132 )     0.63226765
  WF centre and spread   15  ( -9.099038,  9.938753,  6.969669 )     0.63183621
  WF centre and spread   16  (  9.101469, -9.930879, -6.970154 )     0.63211735
  WF centre and spread   17  (  9.481378,-10.175683,  6.075953 )     0.53395913
  WF centre and spread   18  (  9.132489,-10.090207,  6.728686 )     0.52762900
  WF centre and spread   19  ( -9.458233, 10.179166,  9.184483 )     0.62792200
  WF centre and spread   20  (  8.486269,-10.173878, -6.978438 )     0.55856845
  WF centre and spread   21  ( -9.475789, 10.174738, -6.077956 )     0.54071074
  WF centre and spread   22  ( -9.913635, -9.584141, -4.967056 )     0.68412124
  WF centre and spread   23  (  8.461127,-10.178318,  8.937325 )     0.65618356
  WF centre and spread   24  (  8.246524,-10.178427, -9.326303 )     0.66151983
  WF centre and spread   25  (  9.564580,  9.922020,  6.728016 )     0.69543662
  WF centre and spread   26  (  9.795271,-10.030443,  6.812054 )     0.53450895
  WF centre and spread   27  ( -9.936477, 10.180128,  8.041158 )     0.62559339
  WF centre and spread   28  ( -9.113403, 10.129226, -6.731229 )     0.51864618
  WF centre and spread   29  ( -8.875028, 10.173956, -4.901346 )     0.66948163
  WF centre and spread   30  (  9.753657, -9.900286,  9.155065 )     1.30737626
  WF centre and spread   31  ( -9.752552,  9.985677, -6.800141 )     0.56347815
  WF centre and spread   32  ( -9.682820, 10.179202, -9.046690 )     0.62120912
  WF centre and spread   33  ( -9.115122, -9.897761,-10.064727 )     1.26601494
  WF centre and spread   34  (  9.099098,  9.939840, -6.968989 )     0.63149012
  WF centre and spread   35  (  9.548417, -9.901981, -9.280759 )     1.30275164
  WF centre and spread   36  (  9.750805,  9.895852,  9.153768 )     1.30177945
  WF centre and spread   37  ( -9.114569,  9.894204,-10.064790 )     1.26522703
  Sum of centres and spreads ( 10.199292, 30.544139,-10.203250 )    26.94728813
 
     13    -0.688E-03                        26.9472881301       0.02  <-- CONV
        O_D=      0.0000000 O_OD=      4.3620729 O_TOT=     26.9472881 <-- SPRD
 Delta: O_D=  0.0000000E+00 O_OD= -0.6877963E-03 O_TOT= -0.6877963E-03 <-- DLTA
 ------------------------------------------------------------------------------
 Cycle:     14
  WF centre and spread    1  ( -9.921008,  9.586548, -4.967365 )     0.68202164
  WF centre and spread    2  (  8.963500, 10.179051, 10.048729 )     0.60805856
  WF centre and spread    3  ( -9.619223, -9.933777, -6.749017 )     0.66481232
  WF centre and spread    4  (  9.910117, -9.583937,  4.967063 )     0.68887665
  WF centre and spread    5  ( -8.463413, 10.180050, -8.926931 )     0.66066517
  WF centre and spread    6  ( -8.485137,-10.173584,  6.969519 )     0.55620758
  WF centre and spread    7  ( -8.242207, 10.179992,  9.318528 )     0.65953544
  WF centre and spread    8  (  9.917608,  9.585995,  4.967563 )     0.68703745
  WF centre and spread    9  ( -9.102034, -9.931783,  6.972925 )     0.63025337
  WF centre and spread   10  (  9.545940,  9.897705, -9.279166 )     1.29761432
  WF centre and spread   11  (  8.746299,-10.173450, -6.476132 )     0.57728648
  WF centre and spread   12  ( -8.756738,-10.172654,  6.474141 )     0.57764002
  WF centre and spread   13  (  8.875495, 10.173989,  4.908060 )     0.66499634
  WF centre and spread   14  (  9.941721, 10.178594, -8.040128 )     0.63230594
  WF centre and spread   15  ( -9.099023,  9.938800,  6.969608 )     0.63199491
  WF centre and spread   16  (  9.101468, -9.930911, -6.970168 )     0.63212764
  WF centre and spread   17  (  9.480947,-10.175941,  6.075931 )     0.53405467
  WF centre and spread   18  (  9.128460,-10.099836,  6.728653 )     0.52504885
  WF centre and spread   19  ( -9.458233, 10.179220,  9.184488 )     0.62791787
  WF centre and spread   20  (  8.486260,-10.173873, -6.978431 )     0.55857070
  WF centre and spread   21  ( -9.475721, 10.174993, -6.077950 )     0.54073215
  WF centre and spread   22  ( -9.913629, -9.584146, -4.967055 )     0.68409973
  WF centre and spread   23  (  8.461126,-10.178318,  8.937325 )     0.65618469
  WF centre and spread   24  (  8.246523,-10.178426, -9.326303 )     0.66151901
  WF centre and spread   25  (  9.576438,  9.923143,  6.730842 )     0.69125696
  WF centre and spread   26  (  9.787893,-10.021574,  6.809415 )     0.54046056
  WF centre and spread   27  ( -9.936439, 10.180085,  8.041140 )     0.62572865
  WF centre and spread   28  ( -9.112730, 10.132128, -6.731229 )     0.51818883
  WF centre and spread   29  ( -8.875028, 10.173957, -4.901345 )     0.66948173
  WF centre and spread   30  (  9.753545, -9.900318,  9.155066 )     1.30729039
  WF centre and spread   31  ( -9.749258,  9.983142, -6.798816 )     0.56629374
  WF centre and spread   32  ( -9.682825, 10.179252, -9.046687 )     0.62121170
  WF centre and spread   33  ( -9.115072, -9.897788,-10.064800 )     1.26591823
  WF centre and spread   34  (  9.099086,  9.939831, -6.968961 )     0.63154385
  WF centre and spread   35  (  9.548444, -9.902009, -9.280693 )     1.30264023
  WF centre and spread   36  (  9.750754,  9.895828,  9.153826 )     1.30190545
  WF centre and spread   37  ( -9.114598,  9.894182,-10.064850 )     1.26533084
  Sum of centres and spreads ( 10.199307, 30.544160,-10.203207 )    26.94681264
 
     14    -0.475E-03                        26.9468126425       0.02  <-- CONV
        O_D=      0.0000000 O_OD=      4.3615974 O_TOT=     26.9468126 <-- SPRD
 Delta: O_D=  0.0000000E+00 O_OD= -0.4754876E-03 O_TOT= -0.4754876E-03 <-- DLTA
 ------------------------------------------------------------------------------
 Cycle:     15
  WF centre and spread    1  ( -9.921005,  9.586546, -4.967367 )     0.68200674
  WF centre and spread    2  (  8.963500, 10.179085, 10.048729 )     0.60805865
  WF centre and spread    3  ( -9.622803, -9.934416, -6.750241 )     0.66255338
  WF centre and spread    4  (  9.910097, -9.583937,  4.967065 )     0.68880027
  WF centre and spread    5  ( -8.463413, 10.180050, -8.926931 )     0.66066504
  WF centre and spread    6  ( -8.485148,-10.173583,  6.969542 )     0.55624206
  WF centre and spread    7  ( -8.242206, 10.179992,  9.318527 )     0.65953570
  WF centre and spread    8  (  9.917591,  9.586001,  4.967563 )     0.68695199
  WF centre and spread    9  ( -9.102024, -9.931814,  6.972862 )     0.63036497
  WF centre and spread   10  (  9.545992,  9.897686, -9.279157 )     1.29770019
  WF centre and spread   11  (  8.746305,-10.173433, -6.476134 )     0.57728520
  WF centre and spread   12  ( -8.756719,-10.172661,  6.474141 )     0.57761440
  WF centre and spread   13  (  8.875498, 10.173987,  4.908059 )     0.66499375
  WF centre and spread   14  (  9.941713, 10.178623, -8.040124 )     0.63233813
  WF centre and spread   15  ( -9.099014,  9.938850,  6.969582 )     0.63209492
  WF centre and spread   16  (  9.101469, -9.930938, -6.970180 )     0.63213473
  WF centre and spread   17  (  9.480601,-10.176269,  6.075912 )     0.53414207
  WF centre and spread   18  (  9.125495,-10.107800,  6.728598 )     0.52315339
  WF centre and spread   19  ( -9.458234, 10.179247,  9.184490 )     0.62791646
  WF centre and spread   20  (  8.486255,-10.173869, -6.978428 )     0.55857419
  WF centre and spread   21  ( -9.475664, 10.175225, -6.077944 )     0.54074978
  WF centre and spread   22  ( -9.913625, -9.584150, -4.967053 )     0.68408142
  WF centre and spread   23  (  8.461126,-10.178318,  8.937325 )     0.65618548
  WF centre and spread   24  (  8.246523,-10.178426, -9.326304 )     0.66151859
  WF centre and spread   25  (  9.586414,  9.924196,  6.733467 )     0.68713872
  WF centre and spread   26  (  9.781244,-10.014235,  6.806971 )     0.54584845
  WF centre and spread   27  ( -9.936408, 10.180038,  8.041126 )     0.62584208
  WF centre and spread   28  ( -9.112170, 10.134690, -6.731230 )     0.51780914
  WF centre and spread   29  ( -8.875029, 10.173957, -4.901345 )     0.66948184
  WF centre and spread   30  (  9.753484, -9.900332,  9.155068 )     1.30726183
  WF centre and spread   31  ( -9.746299,  9.980934, -6.797623 )     0.56881705
  WF centre and spread   32  ( -9.682828, 10.179276, -9.046685 )     0.62121293
  WF centre and spread   33  ( -9.115047, -9.897802,-10.064839 )     1.26586885
  WF centre and spread   34  (  9.099077,  9.939823, -6.968934 )     0.63158954
  WF centre and spread   35  (  9.548460, -9.902023, -9.280659 )     1.30258552
  WF centre and spread   36  (  9.750723,  9.895817,  9.153858 )     1.30197491
  WF centre and spread   37  ( -9.114612,  9.894170,-10.064882 )     1.26538232
  Sum of centres and spreads ( 10.199320, 30.544189,-10.203175 )    26.94647469
 
     15    -0.338E-03                        26.9464746878       0.02  <-- CONV
        O_D=      0.0000000 O_OD=      4.3612595 O_TOT=     26.9464747 <-- SPRD
 Delta: O_D=  0.0000000E+00 O_OD= -0.3379547E-03 O_TOT= -0.3379547E-03 <-- DLTA
 ------------------------------------------------------------------------------
 Cycle:     16
  WF centre and spread    1  ( -9.921003,  9.586543, -4.967369 )     0.68199425
  WF centre and spread    2  (  8.963500, 10.179101, 10.048730 )     0.60805860
  WF centre and spread    3  ( -9.625996, -9.935014, -6.751345 )     0.66050415
  WF centre and spread    4  (  9.910082, -9.583935,  4.967067 )     0.68873953
  WF centre and spread    5  ( -8.463413, 10.180050, -8.926931 )     0.66066498
  WF centre and spread    6  ( -8.485145,-10.173587,  6.969545 )     0.55626539
  WF centre and spread    7  ( -8.242206, 10.179991,  9.318527 )     0.65953593
  WF centre and spread    8  (  9.917576,  9.586008,  4.967562 )     0.68688237
  WF centre and spread    9  ( -9.102008, -9.931827,  6.972807 )     0.63047126
  WF centre and spread   10  (  9.546020,  9.897675, -9.279152 )     1.29774842
  WF centre and spread   11  (  8.746309,-10.173417, -6.476136 )     0.57728373
  WF centre and spread   12  ( -8.756719,-10.172677,  6.474145 )     0.57760163
  WF centre and spread   13  (  8.875501, 10.173985,  4.908058 )     0.66499204
  WF centre and spread   14  (  9.941706, 10.178649, -8.040121 )     0.63236548
  WF centre and spread   15  ( -9.099008,  9.938899,  6.969574 )     0.63215955
  WF centre and spread   16  (  9.101470, -9.930961, -6.970191 )     0.63213939
  WF centre and spread   17  (  9.480321,-10.176625,  6.075897 )     0.53421949
  WF centre and spread   18  (  9.123249,-10.114495,  6.728536 )     0.52172183
  WF centre and spread   19  ( -9.458235, 10.179261,  9.184492 )     0.62791632
  WF centre and spread   20  (  8.486252,-10.173865, -6.978426 )     0.55857782
  WF centre and spread   21  ( -9.475614, 10.175438, -6.077939 )     0.54076446
  WF centre and spread   22  ( -9.913620, -9.584154, -4.967052 )     0.68406573
  WF centre and spread   23  (  8.461127,-10.178319,  8.937325 )     0.65618604
  WF centre and spread   24  (  8.246523,-10.178426, -9.326304 )     0.66151839
  WF centre and spread   25  (  9.594948,  9.925190,  6.735884 )     0.68319777
  WF centre and spread   26  (  9.775246,-10.008084,  6.804719 )     0.55072698
  WF centre and spread   27  ( -9.936382, 10.179992,  8.041113 )     0.62593731
  WF centre and spread   28  ( -9.111700, 10.136966, -6.731230 )     0.51749033
[...]
  WF centre and spread   13  (  8.875512, 10.173962,  4.908054 )     0.66498703
  WF centre and spread   14  (  9.941650, 10.178980, -8.040095 )     0.63258204
  WF centre and spread   15  ( -9.099156,  9.939772,  6.970275 )     0.63170659
  WF centre and spread   16  (  9.101504, -9.931228, -6.970362 )     0.63208234
  WF centre and spread   17  (  9.478863, 10.177415,  6.075801 )     0.53471589
  WF centre and spread   18  (  9.113290, 10.157435,  6.727969 )     0.51519329
  WF centre and spread   19  ( -9.458238, 10.179272,  9.184495 )     0.62792299
  WF centre and spread   20  (  8.486239,-10.173820, -6.978419 )     0.55861120
  WF centre and spread   21  ( -9.475209, 10.178157, -6.077884 )     0.54086107
  WF centre and spread   22  ( -9.913582, -9.584198, -4.967033 )     0.68393343
  WF centre and spread   23  (  8.461127,-10.178326,  8.937326 )     0.65618800
  WF centre and spread   24  (  8.246522,-10.178424, -9.326303 )     0.66151843
  WF centre and spread   25  (  9.723070,  9.963219,  6.783746 )     0.59418527
  WF centre and spread   26  (  9.658610, -9.942106,  6.757998 )     0.64357098
  WF centre and spread   27  ( -9.936231, 10.178848,  8.041039 )     0.62648832
  WF centre and spread   28  ( -9.108104, 10.162617, -6.731269 )     0.51504320
  WF centre and spread   29  ( -8.875032, 10.173964, -4.901344 )     0.66948354
  WF centre and spread   30  (  9.753397, -9.900255,  9.155083 )     1.30758397
  WF centre and spread   31  ( -9.711086,  9.959128, -6.783388 )     0.59828336
  WF centre and spread   32  ( -9.682830, 10.179296, -9.046682 )     0.62121278
  WF centre and spread   33  ( -9.115019, -9.897811,-10.064892 )     1.26583442
  WF centre and spread   34  (  9.098982,  9.939673, -6.968624 )     0.63204208
  WF centre and spread   35  (  9.548490, -9.902045, -9.280626 )     1.30255489
  WF centre and spread   36  (  9.750598,  9.895897,  9.153912 )     1.30193147
  WF centre and spread   37  ( -9.114611,  9.894161,-10.064924 )     1.26539790
  Sum of centres and spreads ( 10.199382, 71.273538,-10.203051 )    26.94499945
 
     97    -0.150E-06                        26.9449994525       0.05  <-- CONV
        O_D=      0.0000000 O_OD=      4.3597842 O_TOT=     26.9449995 <-- SPRD
 Delta: O_D=  0.0000000E+00 O_OD= -0.1504143E-06 O_TOT= -0.1504143E-06 <-- DLTA
 ------------------------------------------------------------------------------
 Cycle:     98
  WF centre and spread    1  ( -9.920988,  9.586507, -4.967390 )     0.68190669
  WF centre and spread    2  (  8.963500, 10.179102, 10.048730 )     0.60805758
  WF centre and spread    3  ( -9.662567, -9.944112, -6.764699 )     0.63507191
  WF centre and spread    4  (  9.910044, -9.583802,  4.967144 )     0.68848587
  WF centre and spread    5  ( -8.463414, 10.180051, -8.926931 )     0.66066493
  WF centre and spread    6  ( -8.485093,-10.173738,  6.969510 )     0.55637716
  WF centre and spread    7  ( -8.242205, 10.179987,  9.318525 )     0.65953715
  WF centre and spread    8  (  9.917451,  9.586164,  4.967494 )     0.68644479
  WF centre and spread    9  ( -9.101733, -9.931254,  6.971806 )     0.63183326
  WF centre and spread   10  (  9.546061,  9.897658, -9.279140 )     1.29786328
  WF centre and spread   11  (  8.746325,-10.173215, -6.476147 )     0.57726722
  WF centre and spread   12  ( -8.756766,-10.173400,  6.474188 )     0.57756768
  WF centre and spread   13  (  8.875512, 10.173962,  4.908054 )     0.66498703
  WF centre and spread   14  (  9.941650, 10.178980, -8.040095 )     0.63258208
  WF centre and spread   15  ( -9.099157,  9.939773,  6.970277 )     0.63170403
  WF centre and spread   16  (  9.101504, -9.931228, -6.970362 )     0.63208229
  WF centre and spread   17  (  9.478865, 10.177397,  6.075801 )     0.53471487
  WF centre and spread   18  (  9.113304, 10.157281,  6.727971 )     0.51520046
  WF centre and spread   19  ( -9.458238, 10.179272,  9.184495 )     0.62792298
  WF centre and spread   20  (  8.486239,-10.173820, -6.978419 )     0.55861121
  WF centre and spread   21  ( -9.475209, 10.178158, -6.077884 )     0.54086108
  WF centre and spread   22  ( -9.913582, -9.584198, -4.967033 )     0.68393340
  WF centre and spread   23  (  8.461127,-10.178326,  8.937326 )     0.65618800
  WF centre and spread   24  (  8.246522,-10.178424, -9.326303 )     0.66151843
  WF centre and spread   25  (  9.723274,  9.963336,  6.783828 )     0.59402092
  WF centre and spread   26  (  9.658390, -9.942046,  6.757913 )     0.64373130
  WF centre and spread   27  ( -9.936232, 10.178846,  8.041039 )     0.62648724
  WF centre and spread   28  ( -9.108103, 10.162626, -6.731270 )     0.51504271
  WF centre and spread   29  ( -8.875032, 10.173964, -4.901344 )     0.66948354
  WF centre and spread   30  (  9.753397, -9.900255,  9.155083 )     1.30758421
  WF centre and spread   31  ( -9.711074,  9.959122, -6.783384 )     0.59829303
  WF centre and spread   32  ( -9.682830, 10.179296, -9.046682 )     0.62121278
  WF centre and spread   33  ( -9.115019, -9.897811,-10.064892 )     1.26583448
  WF centre and spread   34  (  9.098982,  9.939673, -6.968624 )     0.63204220
  WF centre and spread   35  (  9.548490, -9.902045, -9.280626 )     1.30255490
  WF centre and spread   36  (  9.750598,  9.895897,  9.153912 )     1.30193081
  WF centre and spread   37  ( -9.114611,  9.894161,-10.064924 )     1.26539785
  Sum of centres and spreads ( 10.199382, 71.273541,-10.203052 )    26.94499932
 
     98    -0.136E-06                        26.9449993162       0.05  <-- CONV
        O_D=      0.0000000 O_OD=      4.3597841 O_TOT=     26.9449993 <-- SPRD
 Delta: O_D=  0.0000000E+00 O_OD= -0.1363001E-06 O_TOT= -0.1363001E-06 <-- DLTA
 ------------------------------------------------------------------------------
 Cycle:     99
  WF centre and spread    1  ( -9.920988,  9.586507, -4.967390 )     0.68190668
  WF centre and spread    2  (  8.963500, 10.179102, 10.048730 )     0.60805759
  WF centre and spread    3  ( -9.662579, -9.944115, -6.764703 )     0.63506317
  WF centre and spread    4  (  9.910044, -9.583802,  4.967144 )     0.68848653
  WF centre and spread    5  ( -8.463414, 10.180051, -8.926931 )     0.66066493
  WF centre and spread    6  ( -8.485093,-10.173738,  6.969510 )     0.55637701
  WF centre and spread    7  ( -8.242205, 10.179987,  9.318525 )     0.65953715
  WF centre and spread    8  (  9.917451,  9.586164,  4.967494 )     0.68644512
  WF centre and spread    9  ( -9.101733, -9.931253,  6.971805 )     0.63183415
  WF centre and spread   10  (  9.546060,  9.897658, -9.279140 )     1.29786321
  WF centre and spread   11  (  8.746325,-10.173215, -6.476147 )     0.57726721
  WF centre and spread   12  ( -8.756766,-10.173402,  6.474188 )     0.57756775
  WF centre and spread   13  (  8.875512, 10.173962,  4.908054 )     0.66498703
  WF centre and spread   14  (  9.941650, 10.178980, -8.040095 )     0.63258212
  WF centre and spread   15  ( -9.099157,  9.939774,  6.970279 )     0.63170158
  WF centre and spread   16  (  9.101504, -9.931228, -6.970362 )     0.63208224
  WF centre and spread   17  (  9.478867, 10.177379,  6.075801 )     0.53471388
  WF centre and spread   18  (  9.113317, 10.157134,  6.727973 )     0.51520733
  WF centre and spread   19  ( -9.458238, 10.179272,  9.184495 )     0.62792296
  WF centre and spread   20  (  8.486239,-10.173820, -6.978419 )     0.55861121
  WF centre and spread   21  ( -9.475209, 10.178159, -6.077884 )     0.54086109
  WF centre and spread   22  ( -9.913582, -9.584198, -4.967033 )     0.68393337
  WF centre and spread   23  (  8.461127,-10.178326,  8.937326 )     0.65618800
  WF centre and spread   24  (  8.246522,-10.178424, -9.326303 )     0.66151843
  WF centre and spread   25  (  9.723468,  9.963447,  6.783907 )     0.59386459
  WF centre and spread   26  (  9.658180, -9.941989,  6.757831 )     0.64388376
  WF centre and spread   27  ( -9.936232, 10.178844,  8.041039 )     0.62648621
  WF centre and spread   28  ( -9.108102, 10.162634, -6.731270 )     0.51504224
  WF centre and spread   29  ( -8.875032, 10.173964, -4.901344 )     0.66948354
  WF centre and spread   30  (  9.753398, -9.900255,  9.155082 )     1.30758444
  WF centre and spread   31  ( -9.711063,  9.959117, -6.783379 )     0.59830214
  WF centre and spread   32  ( -9.682830, 10.179296, -9.046682 )     0.62121278
  WF centre and spread   33  ( -9.115019, -9.897811,-10.064892 )     1.26583454
  WF centre and spread   34  (  9.098982,  9.939673, -6.968624 )     0.63204232
  WF centre and spread   35  (  9.548490, -9.902045, -9.280626 )     1.30255492
  WF centre and spread   36  (  9.750598,  9.895898,  9.153912 )     1.30193018
  WF centre and spread   37  ( -9.114611,  9.894161,-10.064924 )     1.26539780
  Sum of centres and spreads ( 10.199382, 71.273544,-10.203052 )    26.94499919
 
     99    -0.123E-06                        26.9449991927       0.05  <-- CONV
        O_D=      0.0000000 O_OD=      4.3597840 O_TOT=     26.9449992 <-- SPRD
 Delta: O_D=  0.0000000E+00 O_OD= -0.1234416E-06 O_TOT= -0.1234416E-06 <-- DLTA
 ------------------------------------------------------------------------------
 Cycle:    100
  WF centre and spread    1  ( -9.920988,  9.586507, -4.967390 )     0.68190667
  WF centre and spread    2  (  8.963500, 10.179102, 10.048730 )     0.60805759
  WF centre and spread    3  ( -9.662590, -9.944119, -6.764708 )     0.63505495
  WF centre and spread    4  (  9.910044, -9.583801,  4.967145 )     0.68848717
  WF centre and spread    5  ( -8.463414, 10.180051, -8.926931 )     0.66066493
  WF centre and spread    6  ( -8.485093,-10.173738,  6.969510 )     0.55637687
  WF centre and spread    7  ( -8.242205, 10.179987,  9.318525 )     0.65953714
  WF centre and spread    8  (  9.917451,  9.586165,  4.967494 )     0.68644544
  WF centre and spread    9  ( -9.101733, -9.931251,  6.971804 )     0.63183499
  WF centre and spread   10  (  9.546060,  9.897658, -9.279140 )     1.29786314
  WF centre and spread   11  (  8.746325,-10.173215, -6.476147 )     0.57726721
  WF centre and spread   12  ( -8.756766,-10.173403,  6.474188 )     0.57756781
  WF centre and spread   13  (  8.875512, 10.173962,  4.908054 )     0.66498703
  WF centre and spread   14  (  9.941650, 10.178980, -8.040095 )     0.63258215
  WF centre and spread   15  ( -9.099158,  9.939775,  6.970281 )     0.63169925
  WF centre and spread   16  (  9.101504, -9.931228, -6.970362 )     0.63208219
  WF centre and spread   17  (  9.478870, 10.177362,  6.075801 )     0.53471294
  WF centre and spread   18  (  9.113330, 10.156993,  6.727975 )     0.51521392
  WF centre and spread   19  ( -9.458238, 10.179272,  9.184495 )     0.62792295
  WF centre and spread   20  (  8.486239,-10.173820, -6.978419 )     0.55861122
  WF centre and spread   21  ( -9.475209, 10.178160, -6.077884 )     0.54086109
  WF centre and spread   22  ( -9.913582, -9.584198, -4.967033 )     0.68393334
  WF centre and spread   23  (  8.461127,-10.178326,  8.937326 )     0.65618800
  WF centre and spread   24  (  8.246522,-10.178424, -9.326303 )     0.66151843
  WF centre and spread   25  (  9.723653,  9.963552,  6.783982 )     0.59371592
  WF centre and spread   26  (  9.657980, -9.941935,  6.757754 )     0.64402872
  WF centre and spread   27  ( -9.936232, 10.178842,  8.041039 )     0.62648522
  WF centre and spread   28  ( -9.108102, 10.162642, -6.731270 )     0.51504180
  WF centre and spread   29  ( -8.875032, 10.173964, -4.901344 )     0.66948355
  WF centre and spread   30  (  9.753398, -9.900255,  9.155082 )     1.30758465
  WF centre and spread   31  ( -9.711052,  9.959111, -6.783375 )     0.59831071
  WF centre and spread   32  ( -9.682830, 10.179296, -9.046682 )     0.62121277
  WF centre and spread   33  ( -9.115019, -9.897811,-10.064892 )     1.26583461
  WF centre and spread   34  (  9.098982,  9.939673, -6.968624 )     0.63204243
  WF centre and spread   35  (  9.548490, -9.902045, -9.280627 )     1.30255494
  WF centre and spread   36  (  9.750598,  9.895898,  9.153912 )     1.30192959
  WF centre and spread   37  ( -9.114611,  9.894161,-10.064924 )     1.26539776
  Sum of centres and spreads ( 10.199382, 71.273547,-10.203052 )    26.94499908
 
    100    -0.112E-06                        26.9449990810       0.05  <-- CONV
        O_D=      0.0000000 O_OD=      4.3597839 O_TOT=     26.9449991 <-- SPRD
 Delta: O_D=  0.0000000E+00 O_OD= -0.1117371E-06 O_TOT= -0.1117371E-06 <-- DLTA
 ------------------------------------------------------------------------------

 Writing checkpoint file tanryo.chk... done

 Final State
  WF centre and spread    1  ( -9.920988,  9.586507, -4.967390 )     0.68190667
  WF centre and spread    2  (  8.963500, 10.179102, 10.048730 )     0.60805759
  WF centre and spread    3  ( -9.662590, -9.944119, -6.764708 )     0.63505495
  WF centre and spread    4  (  9.910044, -9.583801,  4.967145 )     0.68848717
  WF centre and spread    5  ( -8.463414, 10.180051, -8.926931 )     0.66066493
  WF centre and spread    6  ( -8.485093,-10.173738,  6.969510 )     0.55637687
  WF centre and spread    7  ( -8.242205, 10.179987,  9.318525 )     0.65953714
  WF centre and spread    8  (  9.917451,  9.586165,  4.967494 )     0.68644544
  WF centre and spread    9  ( -9.101733, -9.931251,  6.971804 )     0.63183499
  WF centre and spread   10  (  9.546060,  9.897658, -9.279140 )     1.29786314
  WF centre and spread   11  (  8.746325,-10.173215, -6.476147 )     0.57726721
  WF centre and spread   12  ( -8.756766,-10.173403,  6.474188 )     0.57756781
  WF centre and spread   13  (  8.875512, 10.173962,  4.908054 )     0.66498703
  WF centre and spread   14  (  9.941650, 10.178980, -8.040095 )     0.63258215
  WF centre and spread   15  ( -9.099158,  9.939775,  6.970281 )     0.63169925
  WF centre and spread   16  (  9.101504, -9.931228, -6.970362 )     0.63208219
  WF centre and spread   17  (  9.478870, 10.177362,  6.075801 )     0.53471294
  WF centre and spread   18  (  9.113330, 10.156993,  6.727975 )     0.51521392
  WF centre and spread   19  ( -9.458238, 10.179272,  9.184495 )     0.62792295
  WF centre and spread   20  (  8.486239,-10.173820, -6.978419 )     0.55861122
  WF centre and spread   21  ( -9.475209, 10.178160, -6.077884 )     0.54086109
  WF centre and spread   22  ( -9.913582, -9.584198, -4.967033 )     0.68393334
  WF centre and spread   23  (  8.461127,-10.178326,  8.937326 )     0.65618800
  WF centre and spread   24  (  8.246522,-10.178424, -9.326303 )     0.66151843
  WF centre and spread   25  (  9.723653,  9.963552,  6.783982 )     0.59371592
  WF centre and spread   26  (  9.657980, -9.941935,  6.757754 )     0.64402872
  WF centre and spread   27  ( -9.936232, 10.178842,  8.041039 )     0.62648522
  WF centre and spread   28  ( -9.108102, 10.162642, -6.731270 )     0.51504180
  WF centre and spread   29  ( -8.875032, 10.173964, -4.901344 )     0.66948355
  WF centre and spread   30  (  9.753398, -9.900255,  9.155082 )     1.30758465
  WF centre and spread   31  ( -9.711052,  9.959111, -6.783375 )     0.59831071
  WF centre and spread   32  ( -9.682830, 10.179296, -9.046682 )     0.62121277
  WF centre and spread   33  ( -9.115019, -9.897811,-10.064892 )     1.26583461
  WF centre and spread   34  (  9.098982,  9.939673, -6.968624 )     0.63204243
  WF centre and spread   35  (  9.548490, -9.902045, -9.280627 )     1.30255494
  WF centre and spread   36  (  9.750598,  9.895898,  9.153912 )     1.30192959
  WF centre and spread   37  ( -9.114611,  9.894161,-10.064924 )     1.26539776
  Sum of centres and spreads ( 10.199382, 71.273547,-10.203052 )    26.94499908
 
         Spreads (Ang^2)       Omega I      =    22.585215216
        ================       Omega D      =     0.000000000
                               Omega OD     =     4.359783865
    Final Spread (Ang^2)       Omega Total  =    26.944999081
 ------------------------------------------------------------------------------
 Time for wannierise            0.036 (sec)

 Writing checkpoint file tanryo.chk... done

 *---------------------------------------------------------------------------*
 |                               PLOTTING                                    |
 *---------------------------------------------------------------------------*
 
      Wannier Function Num:    1       Maximum Im/Re Ratio =    0.000000
      Wannier Function Num:    2       Maximum Im/Re Ratio =    0.000000
      Wannier Function Num:    3       Maximum Im/Re Ratio =    0.000000
      Wannier Function Num:    4       Maximum Im/Re Ratio =    0.000000
      Wannier Function Num:    5       Maximum Im/Re Ratio =    0.000000
      Wannier Function Num:    6       Maximum Im/Re Ratio =    0.000000
      Wannier Function Num:    7       Maximum Im/Re Ratio =    0.000000
      Wannier Function Num:    8       Maximum Im/Re Ratio =    0.000000
      Wannier Function Num:    9       Maximum Im/Re Ratio =    0.000000
      Wannier Function Num:   10       Maximum Im/Re Ratio =    0.000000
      Wannier Function Num:   11       Maximum Im/Re Ratio =    0.000000
      Wannier Function Num:   12       Maximum Im/Re Ratio =    0.000000
      Wannier Function Num:   13       Maximum Im/Re Ratio =    0.000000
      Wannier Function Num:   14       Maximum Im/Re Ratio =    0.000000
      Wannier Function Num:   15       Maximum Im/Re Ratio =    0.000000
      Wannier Function Num:   16       Maximum Im/Re Ratio =    0.000000
      Wannier Function Num:   17       Maximum Im/Re Ratio =    0.000000
      Wannier Function Num:   18       Maximum Im/Re Ratio =    0.000000
      Wannier Function Num:   19       Maximum Im/Re Ratio =    0.000000
      Wannier Function Num:   20       Maximum Im/Re Ratio =    0.000000
      Wannier Function Num:   21       Maximum Im/Re Ratio =    0.000000
      Wannier Function Num:   22       Maximum Im/Re Ratio =    0.000000
      Wannier Function Num:   23       Maximum Im/Re Ratio =    0.000000
      Wannier Function Num:   24       Maximum Im/Re Ratio =    0.000000
      Wannier Function Num:   25       Maximum Im/Re Ratio =    0.000000
      Wannier Function Num:   26       Maximum Im/Re Ratio =    0.000000
      Wannier Function Num:   27       Maximum Im/Re Ratio =    0.000000
      Wannier Function Num:   28       Maximum Im/Re Ratio =    0.000000
      Wannier Function Num:   29       Maximum Im/Re Ratio =    0.000000
      Wannier Function Num:   30       Maximum Im/Re Ratio =    0.000000
      Wannier Function Num:   31       Maximum Im/Re Ratio =    0.000000
      Wannier Function Num:   32       Maximum Im/Re Ratio =    0.000000
      Wannier Function Num:   33       Maximum Im/Re Ratio =    0.000000
      Wannier Function Num:   34       Maximum Im/Re Ratio =    0.000000
      Wannier Function Num:   35       Maximum Im/Re Ratio =    0.000000
      Wannier Function Num:   36       Maximum Im/Re Ratio =    0.000000
      Wannier Function Num:   37       Maximum Im/Re Ratio =    0.000000
  
 Time for plotting            459.510 (sec)
 Total Execution Time         459.562 (sec)

 *===========================================================================*
 |                             TIMING INFORMATION                            |
 *===========================================================================*
 |    Tag                                                Ncalls      Time (s)|
 |---------------------------------------------------------------------------|
 |kmesh: get                                        :         1         0.005|
 |overlap: allocate                                 :         1         0.000|
 |overlap: read                                     :         1         0.006|
 |wann: main_gamma                                  :         1         0.036|
 |plot: main                                        :         1       459.510|
 *---------------------------------------------------------------------------*
 
 All done: wannier90 exiting
